34
Properties=species:S:1:pos:R:3:forces:R:3 Energy=0.0 kcal/mol=T energy=-0.8100065192745239 pbc="F F F"
C       -4.52876912      -6.27707860      -4.08320700      -0.00000977      -0.00002372      -0.00000143
O       -4.94122951      -5.22876409      -4.14145697      -0.00000878       0.00003411      -0.00002066
C       -4.22133355      -2.32580183       4.59844472       0.00000737       0.00002891       0.00002178
O       -5.00602611      -2.84774214       3.97818455       0.00001040      -0.00001339      -0.00003354
C       -3.48976978      -5.59835110      -0.45324419      -0.00001066       0.00001053       0.00000902
O       -3.84561553      -4.52832932      -0.43231229       0.00001155      -0.00000541      -0.00000950
C       -6.25114104      -6.00000535       2.92719239      -0.00002244      -0.00002315       0.00002838
O       -5.81126648      -5.65994973       1.94617311       0.00002730       0.00003644      -0.00002909
C       -2.43898034      -5.07130994       3.14693459       0.00004887      -0.00001610       0.00001723
O       -1.34357975      -4.91307332       2.93130912      -0.00002658       0.00002433      -0.00001000
C       -1.09301266      -3.29903716      -3.25739987       0.00001871       0.00001086       0.00000871
O       -1.94714540      -4.02641650      -3.13839071      -0.00002475      -0.00003506       0.00000060
C       -0.83155073      -7.80870245       5.03120617       0.00004223       0.00003630       0.00000296
O       -1.21431758      -8.73616067       4.51572264      -0.00002930      -0.00002585      -0.00002299
O       -4.46390302      -9.44746419       3.43170732      -0.00002923      -0.00003616       0.00005785
C       -4.07394524      -8.60377705       2.79234040      -0.00000207       0.00001751      -0.00004686
C       -4.99679598      -8.76550517      -0.76712650       0.00002407       0.00000009       0.00001065
O       -5.77460407      -8.38528500      -0.04361964      -0.00000768      -0.00001852      -0.00001787
O        0.56538053      -4.96562216       0.02192918      -0.00001808      -0.00001378       0.00002209
C       -0.40458741      -4.40491977      -0.10909013       0.00002110       0.00001340      -0.00001105
C       -1.42739731      -8.68988473       0.71636942      -0.00001349      -0.00000255      -0.00000003
O       -1.20889053      -7.75245505       1.30442501       0.00001939      -0.00000166       0.00002516
O       -4.38678254      -6.03429491       6.08349645      -0.00002473       0.00001525       0.00000067
C       -4.09243652      -7.08439626       5.79510807       0.00002888      -0.00002675      -0.00001287
C       -5.96724523      -1.82082582       0.93769684       0.00001028       0.00003316      -0.00000172
O       -6.65619198      -2.71362417       0.91986555      -0.00004198      -0.00002578       0.00000810
O       -7.71502394      -5.23743380      -1.08240356      -0.00004086      -0.00000047       0.00002423
C       -6.75021365      -5.63946367      -1.50653585       0.00004745       0.00000979      -0.00001776
C       -4.78446565      -2.05267535      -2.87187922       0.00000509       0.00001784      -0.00000676
O       -5.69793468      -2.47895375      -2.36530777       0.00001201      -0.00001652      -0.00000339
O       -1.45750086      -7.72203474      -2.85131816      -0.00001937      -0.00000041      -0.00002706
C       -0.77484350      -7.03701025      -2.27027546       0.00001641      -0.00000041       0.00001994
C       -2.28083999      -1.54446675       0.34985117      -0.00000894       0.00001094       0.00001599
O       -2.45216382      -2.13915022       1.29323461      -0.00001239      -0.00001378      -0.00000079
