10
Properties=species:S:1:pos:R:3:forces:R:3 Energy=0.0 kcal/mol=T energy=-0.12336783971378101 pbc="F F F"
C        1.37513775       0.66119283       0.95157083      -0.00000189       0.00000132      -0.00000228
O        2.03268280       0.11043192       1.68464286       0.00000175      -0.00000144       0.00000231
C        2.01211178      -2.97970088      -0.12995570       0.00000009       0.00000013      -0.00000041
O        1.90585989      -3.99341059       0.35316923      -0.00000022      -0.00000010       0.00000035
C        0.59701258      -2.37459562       4.13219426      -0.00000324      -0.00000431      -0.00002961
O        0.48533763      -2.51662443       3.01852784       0.00000352       0.00000432       0.00002969
C        2.36849634      -5.67687838       3.39340844      -0.00001221       0.00000014       0.00000629
O        3.36299978      -5.68338765       2.86093342       0.00001219       0.00000000      -0.00000626
C        4.80744299      -1.80115032       2.78991400       0.00000797       0.00000506      -0.00000032
O        3.86812946      -2.42435690       2.83798682      -0.00000795      -0.00000512       0.00000025
