320
Properties=species:S:1:pos:R:3:momenta:R:3:forces:R:3 Energy=0.0 kcal/mol=T energy=-7.347747040629121 pbc="F F F"
C       23.72920468       3.07465339       0.46735491      -0.00530182      -0.36013157       0.20255179       0.37641982       0.08978437      -0.21648820
O       22.79296686       2.89858198       1.06434896       0.38545476      -0.15534655      -0.32528322      -0.35819848      -0.03718283       0.20532471
C       20.32024691       0.39679328      -4.81744395       0.21438763      -0.09090359      -0.05005231      -0.14442099      -0.35053710       0.67711156
O       20.09528637      -0.13323020      -3.83974754      -0.02695037      -0.56048376       0.15399514       0.13716560       0.37082607      -0.68119424
C       27.88149635      -1.81423901       2.45063871       0.09849587       0.13939012      -0.00536628      -0.24034979       0.06285058      -0.52445112
O       28.30064320      -2.04574434       3.46653835       0.08332981      -0.10872956      -0.31481438       0.23921629      -0.11576783       0.54888237
C       24.99411564       8.97907645      10.25723675       0.24827933       0.10480761      -0.01280194      -0.01707120      -0.02619711      -0.01435177
O       24.24733936       8.36085347       9.68011463       0.24332992      -0.10353458      -0.16753008       0.05048772      -0.02607573       0.00154964
C       24.36037114       4.59650980       4.85427624      -0.20381528      -0.44001754      -0.16096936       0.04343412       0.08744962       0.06775385
O       24.06173932       3.80482268       4.10919418      -0.03254440       0.33355433       0.08359457      -0.04049231      -0.05919120      -0.07403969
C       24.27369404      -6.78460144       1.74891125      -0.28249922      -0.17938453       0.09021765       0.03662726       0.04195632       0.01526879
O       23.38515889      -7.39260964       1.41554793       0.15646550       0.39787703       0.10575217      -0.07346737      -0.05295488      -0.00904587
C       23.02469790      10.29632550       0.66000085       0.27906017      -0.15592518       0.29088927       0.12857675      -0.30847933       0.13354925
O       23.44462426       9.32942773       1.06949127       0.07716256       0.43260772       0.50540434      -0.13063211       0.29645308      -0.10115554
C       28.68239441      -0.38389652      -2.67572540       0.26245278       0.04518389      -0.02930311       0.70350245      -0.11589960       0.14445312
O       29.77710823      -0.58779151      -2.46044588      -0.18439482       0.03844875      -0.51191796      -0.76018022       0.09828081      -0.15085932
C       21.58948746      10.23330552       4.29741796       0.00622442       0.00671523      -0.21388457      -0.01423385      -0.01226076       0.06507462
O       21.47069888      10.12883118       5.41509179      -0.11577154       0.39665990      -0.01512755       0.02732941       0.00572189      -0.06566522
C       30.21550565      -3.53741403      -0.23716904       0.42029148       0.15956156      -0.10486805      -0.02009906      -0.12468293      -0.13549300
O       30.50619169      -2.82055281       0.58178755       0.12458296       0.31864376      -0.18782985       0.02745680       0.13131781       0.12393479
C       29.26938717       6.37760882       4.22420403       0.03141585       0.07614181      -0.09977414       0.14565120      -0.06939757       0.86357568
O       29.09782305       6.46965312       3.12038070      -0.66389600       0.01040713      -0.23730137      -0.11482041       0.10663771      -0.79612506
C       18.55948510       2.38517025      10.36539891       0.08081735      -0.13505668      -0.10256752       0.80487213       0.08592141       0.68328937
O       19.41782783       2.48532255      11.10471418       0.15054599      -0.08606925      -0.47482340      -0.79248212      -0.07882726      -0.69993087
C       23.97786350       6.22979605      14.83152560       0.13851879       0.09204315       0.14494546      -0.04620809       1.57316887       0.45418435
O       24.00295378       5.15929430      14.51893367       0.53805856       0.11198982       0.35643377       0.05915620      -1.57875122      -0.46468524
C       21.62694376       6.24380402       1.72389810      -0.17105243      -0.04904588      -0.13106939       0.55542776      -0.33580834       1.01248034
O       22.13398962       5.92181050       2.69061773       0.00309976       0.23892061      -0.06189410      -0.53506804       0.36568444      -1.02336387
C       22.22651327       5.02057378      10.80818670      -0.00161452       0.12595865       0.30654303      -0.03353590       0.29629455      -0.24057747
O       22.35043446       4.13810104      11.49494432      -0.01621960      -0.09763972       0.20475346       0.04265997      -0.29019650       0.23277546
C       33.00758758       2.88979832      12.31841749      -0.10140018       0.13014404       0.08446311      -0.22348711      -0.11975707       0.62408627
O       33.39659545       3.12946474      11.29355794      -0.37693735      -0.24962688       0.02028449       0.22469625       0.13173123      -0.60683152
C       28.06298820       1.39828827       9.93825440      -0.32697392       0.13270095      -0.50250875       0.06816518       0.03126590      -0.00796185
O       27.17756244       0.91496435       9.43481833       0.08882355       0.08375658       0.00315042      -0.07179800      -0.04835163      -0.04235087
C       29.42281928       4.74841448      10.15518892      -0.00390326       0.34287751       0.00486893      -1.64889128       0.11902892      -0.18076676
O       30.52691109       4.65253242      10.27748106       0.00062587       0.05940246       0.09443189       1.62347182      -0.18750822       0.17694929
C       26.63093711       2.11564189       3.76404024      -0.04327780      -0.00990596      -0.09442086       0.17959833       0.20490484       0.02285870
O       26.12044883       1.12014371       3.63816942      -0.27517166      -0.06378451       0.48603471      -0.09459905      -0.24125444      -0.01285738
C       25.60663643       6.35310926       1.73759304       0.23579988      -0.09156161       0.05969831       0.53011438      -0.47890454       0.06776148
O       26.48042966       5.64404360       1.87917576       0.33236587      -0.34355482      -0.21227540      -0.57718875       0.42275421      -0.10226099
C       26.67383164      -1.42135226       6.28643477      -0.22140038      -0.19137082      -0.04086431       0.17637908       0.12827660       0.05355536
O       25.76943098      -2.05576046       6.06714900      -0.42875185      -0.11251497       0.21939844      -0.16174423      -0.11044293      -0.04643076
C       22.32644493      -2.80327548       5.92953871      -0.09883491       0.26305407       0.26149801      -0.50235106       0.40461572       0.68990786
O       22.93359383      -3.30519250       5.13305474       0.11299419       0.08486008      -0.02332032       0.49998614      -0.42713850      -0.65685653
C       18.15077377       6.73479316       8.55081324       0.04469146      -0.02235462       0.10352171      -0.18680946       0.44363913      -0.13070081
O       18.56484057       5.71602027       8.78367987      -0.25693899      -0.03412946       0.19127657       0.19372394      -0.46206452       0.10606694
C       23.95110020       0.20803583      16.93180201      -0.00791879      -0.01772201      -0.02448883       0.00927412       0.02135954      -0.03376086
O       23.97201127       0.94431209      16.07689997      -0.21646480       0.71933785       0.63402808       0.00410454      -0.02030628       0.00706022
C       19.61205243      -0.18258503       6.01250617      -0.29747851       0.16996604       0.16691984       0.06938600       0.13828246      -0.15102903
O       20.03447777       0.43956946       5.16930787       0.30044858      -0.01899129       0.29320051      -0.05096335      -0.11138390       0.14357493
C       26.78949872       6.43341882      12.05830196       0.25212786      -0.14186610       0.51818353      -0.83892021      -0.07566924      -1.47838308
O       27.32631496       6.50104633      13.03312605      -0.23354646       0.18694910      -0.12496237       0.85113199       0.11999489       1.48217959
C       24.16647224       2.37327559      -7.34676992      -0.24879855       0.14085415       0.13598154       0.10075324      -0.04575426      -0.02527948
O       23.22871077       2.81629517      -6.90559998      -0.20773347      -0.38691878      -0.17470195      -0.09625075       0.04533771       0.05262045
C       29.52147697      13.07064095       0.62695608      -0.03209498      -0.51221113      -0.10862296       0.60501603       0.18805151       0.94963429
O       28.92199481      12.87014538      -0.29637796       0.31690013       0.39925951       0.02735335      -0.60650475      -0.21254230      -0.94664625
C       20.47977091      -6.37760057       4.03277614      -0.06992956       0.36672385       0.45919345       0.54680841       0.16200073      -0.04665192
O       19.40162061      -6.68008439       4.12721018       0.18500661      -0.06783901      -0.75106601      -0.52688182      -0.15246170       0.03489917
C       17.97192056       6.82897584      12.04996057       0.29504962       0.21523497       0.30794702      -0.74693921      -0.42316696       0.23365849
O       17.00941155       6.29235608      12.32433465      -0.02693925      -0.00433902       0.28771443       0.75262782       0.41744321      -0.21508226
C       29.92358151       1.91803808      13.91387115      -0.31253694      -0.15971568      -0.10365688       0.11201407      -0.37557951       0.68122465
O       29.74008662       2.43369499      12.93458125      -0.21240473      -0.21587037      -0.03880842      -0.13127632       0.37941384      -0.68578210
C       28.40763379       7.88579716       7.70618898       0.37412643      -0.27736595       0.01204620      -0.69130570      -1.17510326       0.72989560
O       28.90539619       8.73358985       7.17740310       0.26139620      -0.52905779       0.64248289       0.67603179       1.15078942      -0.71183863
C       27.84915745      -0.52477984      17.45122378      -0.00382689       0.12093989       0.15608930      -0.03922565       0.23213286      -0.63904480
O       27.77189280      -0.16298124      16.37923458      -0.37758554       0.37649691      -0.50416957       0.04496994      -0.22581012       0.62545716
C       22.16095991      10.77124920       9.23068638       0.05058994      -0.01499106      -0.18270670       0.08137893      -0.78672688       0.06971759
O       22.01936913      11.87855134       9.12252508      -0.14405220       0.08893522      -0.12703986      -0.10737740       0.80840653      -0.08961693
C       28.90937043       3.37727688       6.50567455      -0.20009151       0.04619535       0.00186734      -0.03884848       0.05754974       0.00371406
O       28.10050113       4.15292251       6.37629068      -0.26441701       0.17943788      -0.00959205       0.02504811      -0.04424683       0.01380420
C       30.40853001       5.95108782      14.58139602       0.11990111       0.33458283       0.11430441       0.14859709      -0.10119627      -0.46221236
O       30.72688160       5.75563924      13.51230768       0.44599749       0.42359779      -0.22112116      -0.16374728       0.08371746       0.46513422
C       23.27350911      -2.30187206      14.12458741      -0.08515686       0.05795134       0.15153149      -0.48764073       1.03757332       0.72142318
O       23.67948131      -3.15667131      13.53079029       0.11746075       0.23776041       0.07035430       0.50703729      -1.04792704      -0.72460181
C       33.41589719      -7.76157498      12.06791292      -0.12396399      -0.05400449       0.08627333       0.43460594       0.27074411      -0.93858098
O       33.89174086      -7.47225181      11.07637160       0.25475034       0.61065864      -0.14844936      -0.44611559      -0.25474659       0.92683980
C       23.08929759       0.24588871       2.95046433       0.03098966      -0.55643946       0.52040009      -0.03021290       0.32331507      -0.74608284
O       23.12427130      -0.19480953       3.98108950       0.12618542       0.09036815       0.27412956       0.01414804      -0.31813748       0.77986927
C       19.00883243       5.92969276       4.15276326      -0.41855791      -0.07884942       0.02382171       0.03214143      -0.18283493       0.46437626
O       19.13707781       5.43750255       5.16429563       0.18068464       0.01662595       0.33101093      -0.04905169       0.20692570      -0.42947035
C       26.10709617       0.14781699       0.39770063       0.06866497      -0.04828843       0.04600650      -0.72020071      -0.12733501      -0.22917555
O       25.03803053      -0.06215234       0.08149208       0.00189984       0.17257447      -0.06794596       0.70937485       0.16206294       0.21496887
C       17.74608018      -2.30038597      -1.28401780       0.10948521       0.14993798       0.17545615      -0.78380601      -0.75620442      -0.74984711
O       18.41151998      -1.65431641      -0.66050239      -0.15737100      -0.51330827      -0.09752473       0.80042901       0.73931549       0.73939231
C       21.25804077       0.13783921      -0.07367814       0.15421343      -0.11051586       0.25375288      -0.05123103      -0.30201218       0.45956650
O       21.33418337       0.71230576      -1.03655041      -0.35024869       0.35030070      -0.03970693       0.04317382       0.28001413      -0.45993865
C       19.66812162       2.38976943       2.52221480      -0.18124521      -0.16471226      -0.07874342       0.55383677       0.80719037       0.34362073
O       20.25043104       3.27780162       2.92876656      -0.00584786       0.14924119      -0.20983541      -0.54669317      -0.85871749      -0.36576491
C       24.76620655      -2.23441670      10.24416346       0.26929146       0.16012783       0.15317407      -0.24603661       0.09602765       0.49976037
O       25.23946106      -2.36669499       9.23366895      -0.10697786       0.15922762      -0.11119101       0.23056798      -0.06807894      -0.49783177
C       21.88240883       3.27353783       6.57324281       0.17677643       0.00243129      -0.01154434      -0.08212008       0.01352945      -0.01058512
O       21.41400023       3.92227409       7.36766971       0.04958308      -0.09473774      -0.08229464      -0.02145596      -0.04078448       0.01817807
C       19.38780374       4.82539106      -0.95757199       0.17318972      -0.23142779      -0.24816169       0.56764408      -0.56300861       0.19121072
O       20.19411239       4.06456098      -0.71319173       0.09932918      -0.03595832      -0.04805342      -0.57927076       0.55240684      -0.16417813
C       27.19210806      -5.36544363       7.83679746      -0.07396077       0.14977761       0.15253339      -0.33241045      -0.51362595       0.25690187
O       26.68677742      -6.29543082       8.24207900       0.06837811      -0.35574076       0.09150779       0.30303119       0.54756676      -0.22849783
C       16.32155297       3.58234110       1.77843046      -0.16694896       0.17538459      -0.06578448       0.04198751      -0.03075081       0.09191773
O       15.84952612       4.03227506       0.85906594      -0.01675977      -0.24329925       0.22719771      -0.03864258       0.04399045      -0.08266748
C       23.66987028       0.86892656       7.61447858      -0.15818020      -0.15938657      -0.09665029       0.27188727       0.08115604      -0.19308356
O       24.45228357       1.26969621       6.90296836       0.26889359      -0.10189673       0.01878907      -0.21418504      -0.14319363       0.19626621
C       16.69677741       2.36407436       5.94444909      -0.55715264       0.04171416       0.27879383      -0.56340252      -0.15420168       0.74596597
O       17.35613116       2.55444618       5.05831822      -0.42866480      -0.00848272      -0.01428435       0.57186670       0.16919026      -0.73593811
C       19.63606483      -2.22197199       8.60847586       0.25630596       0.13585715      -0.23481062       0.52319530       0.22933386       0.45517914
O       20.46421029      -1.82887773       9.27688546      -0.17418061       0.10646631      -0.20353473      -0.51913116      -0.24961986      -0.43683813
C       33.69751162      -5.36732412       6.65433731       0.16912737      -0.10758461      -0.14042205       0.67996570       0.16724937      -0.30866959
O       32.72996267      -5.65444203       7.14455233      -0.17547753       0.04953693      -0.10568293      -0.63310831      -0.17903067       0.33446662
C       16.91470920      -3.83172100       4.86773777       0.06816608       0.05722279       0.16574989       0.31263348      -0.10131103       0.14622760
O       17.90275306      -4.15171767       5.31603709       0.26322976      -0.04066278       0.08367350      -0.31281672       0.11598376      -0.14320773
C       20.42414234      -2.72040988       2.78362775      -0.10037113      -0.03329517      -0.03948475       0.03161307      -0.01410343      -0.04194423
O       19.56658765      -2.19105722       3.28992445       0.06343484      -0.12497139       0.27839004      -0.02688051       0.01581880      -0.01324515
C       22.92672537       0.86497573      12.26460191      -0.28767521       0.09216350       0.53699415       0.59157036       0.10313370      -0.35207230
O       21.97723508       0.67462605      12.83232158      -0.38524131      -0.22619479      -0.15575598      -0.58373715      -0.10048297       0.34308869
C       39.13954653      -5.43422651       5.12823915      -0.10052325      -0.05716553       0.06219612      -1.08886135       1.01426454      -0.79819248
O       38.40441347      -4.74767589       4.58585914       0.27099296      -0.23148253       0.09747765       1.07852392      -1.00184513       0.80116600
C       29.35900551     -11.52021435       6.35925928       0.10058927      -0.37897401      -0.11854710       0.17022095       0.40701299       0.08847939
O       29.78874117     -10.50001565       6.59591825      -0.09114913      -0.29473470       0.18806249      -0.17716810      -0.38794768      -0.10002639
C       31.00503221      -7.87476477       8.75705952       0.38972982       0.30614664      -0.20520802      -0.11025092       0.05769331       0.05325006
O       30.05168922      -7.27867057       8.85808301      -0.14023792      -0.34791286       0.03408391       0.10408225      -0.07768032       0.00848256
C       26.52228065      -9.49595006       9.33244010       0.14752692      -0.09054402       0.41052945       0.31065006      -0.21985723      -0.47047850
O       27.10740663      -9.89101444       8.44565659       0.07361234       0.03356937      -0.06270825      -0.31001613       0.23903382       0.47387812
C       23.37520875      -7.44093758       7.26935691      -0.12045607      -0.40932479      -0.27310081       0.19292691      -0.35404964       0.31903069
O       22.98502104      -6.69830927       6.52134623      -0.18874892      -0.06586748       0.17500858      -0.17895849       0.35255419      -0.34264243
C       22.02717111      -2.89739771      -2.77592339       0.22938699      -0.19203934      -0.06224847      -1.53636038       0.15532736       0.48898363
O       20.94284178      -2.79289337      -2.43165997       0.44053549      -0.03306067      -0.11163713       1.56181658      -0.17248755      -0.46484150
C       26.01023849       2.95949028      12.27567930       0.19392895      -0.03056566      -0.38739446      -0.45025778      -0.24535256      -0.54838240
O       26.66799513       3.35767025      13.09324214       0.06108231      -0.06559857      -0.04443364       0.41416505       0.24667996       0.55296094
C       21.16628090      -5.52780684      -0.19089439      -0.02986035       0.21426652       0.29037867      -0.55511302      -0.05067095       0.46771805
O       20.31249425      -5.63761648       0.54752655       0.33420702      -0.26425869       0.32594872       0.54836608       0.07902375      -0.46050366
C       28.73599717      -7.21268133       5.29161723       0.39729925      -0.15204851      -0.03335031      -0.70467279      -0.36589809      -0.69191051
O       29.50491980      -6.81355372       5.99969663      -0.08370847      -0.36003627      -0.13198943       0.76438293       0.39187671       0.61786819
C       26.99036211       8.08435490      -1.14861104       0.08818484       0.10903991      -0.31863233      -0.17085166      -0.72916167      -0.56327525
O       26.75007928       7.21319227      -1.83648251       0.14715291       0.23684953      -0.05157384       0.21797141       0.69115684       0.54329216
C       19.54697493      -8.87600519       1.11370281       0.09578151       0.09623506      -0.06252791       0.04468405      -0.09344033       0.18224696
O       19.77679500      -9.33246383       2.12140346      -0.12075705       0.25813255       0.08642297      -0.04286466       0.08320136      -0.18815715
C       28.62172362      -3.18878207      10.77413220      -0.17029093       0.17367331      -0.10156490       0.21932254      -1.12113012       0.08854257
O       28.40796612      -2.09289191      10.69891593      -0.11754210       0.48930387       0.46774441      -0.23242075       1.09723835      -0.10858179
C       22.39006822      -9.91157877       4.38880936      -0.22929155       0.34922414      -0.21871297      -0.02081081      -0.19186862       0.15318827
O       22.22845374     -10.81238311       5.05184069      -0.15787167      -0.13856656      -0.29528675       0.03172265       0.20841043      -0.15635955
C       25.91000335      -5.20348141      11.58970550      -0.32091168       0.23450135      -0.11489456       0.06061498       0.22213514      -0.30070329
O       25.67655395      -5.88425246      12.45377387      -0.03633975      -0.15147531      -0.10024067      -0.07295302      -0.22811819       0.30274044
C       25.82680290       4.78048122      -4.33708193      -0.05811500      -0.17400425       0.19095659       0.31868770      -0.22776549      -0.00081618
O       26.75178541       4.12984235      -4.30251153       0.11219356       0.09467379       0.19239846      -0.33236068       0.26493892       0.00309423
C       22.17889159      -5.54169504      10.09689182       0.14553486      -0.04277790       0.09119800      -0.25171112       0.24926952      -0.37491336
O       21.61989284      -5.03614686       9.25130408       0.18152590      -0.18130163       0.05547535       0.26505548      -0.22972641       0.39260458
C       33.32589577      -9.60984427       6.58301039       0.34071204       0.74808633      -0.27249840       0.04023703      -0.02155903       0.03634625
O       32.71018580      -9.12826431       5.77014312       0.21498133      -0.38970132       0.34468270      -0.04979850       0.04112695      -0.05289271
C       21.52664581       7.14518231       7.44759835       0.13483083      -0.31466668       0.00594068      -0.59700390       0.28263227       0.23815827
O       22.50338403       6.75000967       7.06040977      -0.18293588       0.00958361      -0.17140753       0.62497217      -0.21144584      -0.22854489
C       25.01164357       0.32582624      -3.23034382       0.01964009       0.14898348       0.03638841      -0.02260815      -0.03728460       0.02465555
O       25.05897694       1.44758432      -3.33645586      -0.31212017      -0.31875226      -0.20756012       0.01453199       0.03972449      -0.02365939
C       24.66585291       8.25593533       4.68863951       0.52777169       0.07515985       0.00599018      -0.84809210      -0.00591886      -0.58602362
O       25.57601135       8.26027975       5.34112009       0.13659087      -0.27031272       0.18439797       0.84761316      -0.01392775       0.58527622
C       25.84164691      -3.13766973      -1.40123153      -0.13280810      -0.25502715       0.24477395       0.90860727       0.13052653       0.16316323
O       26.93013546      -2.97269856      -1.12096122      -0.63823491       0.19795194       0.03379421      -0.88555855      -0.06014242      -0.25924446
C       27.29556097       9.31647466       2.22886393      -0.23488784      -0.10907750      -0.03472843       0.26458186       0.19365950      -0.26253807
O       28.01124792       9.80437233       1.50130154      -0.43217161       0.24663268      -0.01654163      -0.23760694      -0.16126932       0.28346195
C       30.20815174      -3.60474866       7.64633750      -0.16213528       0.32926799      -0.53758628       0.03506135       0.11129670      -0.29337340
O       30.35563674      -3.29606934       6.56871256       0.02043489      -0.31997420      -0.67951595      -0.07292736      -0.12615796       0.27860461
C       16.63122411      -0.20797677       2.99283352       0.47488271      -0.14036861      -0.08311468       0.23234898       0.01095352      -0.47020541
O       17.10100352      -0.19650726       1.96260074      -0.10755071      -0.11674364       0.13597155      -0.21791747      -0.00995515       0.48182693
C       35.84718175       8.41917714       0.91129658       0.25526678       0.04456137      -0.04917630      -0.76536751       0.25881467      -0.20599195
O       34.80745122       8.77743803       0.62802701      -0.22279177      -0.12083001       0.47954477       0.80151921      -0.27535720       0.24934128
C       39.30690935       2.41301678       4.55591061       0.35231062      -0.15812058      -0.04239468       0.02931012      -0.14174491      -0.03674479
O       39.15586227       3.46027240       4.94319752       0.03976290      -0.09959786       0.15061200      -0.02978316       0.11210981       0.05448175
C       34.21421076      -4.23900050       0.26781930      -0.15516394       0.01268817       0.14546933      -0.03581603       0.11713535       0.04901481
O       34.47395829      -5.24308291      -0.17310161      -0.20224343       0.11942203      -0.46293111       0.02469999      -0.10815409      -0.04521513
C       36.67655716      -3.52254515      10.50293864       0.06373933       0.23648799      -0.08857245      -0.14886503      -0.07908410      -0.24032966
O       36.12691939      -3.87754028       9.58118285      -0.00671543      -0.12799945       0.20337653       0.12314538       0.08131650       0.22635493
C       28.44528718      -3.74719893      15.42691274       0.10169420       0.10159728       0.31073193      -0.14002391       0.01117687      -0.17585660
O       27.77169875      -3.67186804      14.52261788      -0.19503090       0.02976141      -0.01615222       0.12355627      -0.01003301       0.15365428
C       40.42787539       6.65891323      11.46781061      -0.10555238       0.00001176       0.30348364       0.17368947      -0.48773745       0.33509424
O       40.10050924       7.54054750      10.85382439      -0.22583497      -0.35121153       0.11888421      -0.17756553       0.49122989      -0.33010431
C       39.10192861       6.26860845      -0.35335181       0.25155608      -0.32399483      -0.01340868      -0.33608286       0.42928138       0.29083715
O       39.69325166       5.47096282      -0.87840020      -0.31588980       0.20878772       0.57794132       0.31979777      -0.44045263      -0.29058637
C       36.72336313      -0.53192297      -2.51597204       0.36261932      -0.20554711       0.04360596       0.08852630      -0.01102433      -0.02181441
O       35.59905638      -0.51003702      -2.43175156       0.13905361       0.10019757      -0.40663777      -0.05776442      -0.00015013      -0.00484669
C       31.39808990       3.36904840      -3.08459334      -0.18023013       0.06333561       0.14633301       0.43654534       0.18086125      -0.03132835
O       30.39725128       2.86747839      -2.98427888      -0.44276258      -0.05225224      -0.21523511      -0.43949255      -0.22296047       0.05647535
C       36.05589329      -0.19390388       0.90351899       0.17523207      -0.18651075      -0.04655462       0.36814206       0.56507447      -0.54889176
O       35.54824857      -0.90494825       1.60552831      -0.25429579      -0.22943538      -0.11766175      -0.42617393      -0.56630947       0.54641358
C       31.69972076       6.08925612       7.32267195       0.03104504       0.00480033       0.12342843      -0.14972975       0.11982461       0.15959381
O       32.36078929       5.58243647       6.56539670       0.05181153       0.14812728      -0.28755200       0.15011996      -0.11607067      -0.15299131
C       38.09012608      -3.57931565       0.60958278      -0.11380640       0.04526081       0.12644339      -0.05653337       0.00306289       0.11385706
O       37.60892677      -3.45061296       1.62307127      -0.02100030       0.21566712       0.39459559       0.06768059      -0.00855230      -0.12690815
C       33.80043065       1.28709229      -4.92374759       0.07329933      -0.13348154      -0.33724177      -0.20847872      -0.21226656      -0.24887744
O       34.35227527       1.93522465      -4.18872269      -0.16440201       0.20365311       0.08585830       0.18717139       0.21476590       0.23862201
C       29.97972970      -4.20324176      -4.77453990      -0.18155861       0.08082756      -0.03905910       0.33445540      -0.15167361      -0.26773299
O       29.13721333      -3.80496792      -4.14546375       0.09634289       0.32602467       0.39745267      -0.35210663       0.17445148       0.27722484
C       30.35861014       7.28393948      -3.46797182       0.08305031       0.05814316      -0.13569191       0.30727689       1.04401077      -0.05625111
O       30.02904052       6.21570133      -3.40498746      -0.15623304      -0.21761654      -0.00375252      -0.32599676      -1.01002206       0.06741981
C       23.23527869       6.34595731      -1.86618263       0.30337351       0.00080494       0.03335426       0.55733301       1.15626824       0.67595311