400
Properties=species:S:1:pos:R:3:momenta:R:3:forces:R:3 Energy=0.0 kcal/mol=T energy=-9.428187022431143 pbc="F F F"
C       -1.40992626       3.21646354      14.17899750       0.26208116       0.00095988       0.19877441       0.28966225       0.15156852      -0.23639768
O       -0.59573428       3.64101232      13.51758870       0.16483005      -0.28214221       0.03046493      -0.27566404      -0.14230318       0.23120100
C        7.31109058       5.89464103      -0.01391804      -0.25316032      -0.09516876       0.00032605       0.17160309       0.51173355      -0.14740421
O        6.97041022       4.85910575       0.25865970       0.39068544      -0.14453659       0.00978293      -0.15961530      -0.50692943       0.15529955
C        8.95675772       6.33826306      10.10239674       0.17004359      -0.24683294       0.05922442       0.33342006      -0.42462644      -0.06875752
O        8.24536010       7.20052031      10.21042326      -0.30376071      -0.20324142       0.55007223      -0.34693076       0.47399706       0.06666683
C       -0.90997164      -1.44900760       1.23230507      -0.13310554      -0.22633125      -0.21878483      -0.42199128       0.12876539       0.23448504
O        0.05038462      -1.73885691       0.72560617      -0.16636600      -0.29228109      -0.40685236       0.44445281      -0.13005429      -0.22649147
C        6.32784998      10.49612003      10.01134210      -0.32417249      -0.21102707      -0.24473697       0.69644362       0.76664714      -1.30655254
O        5.87659672       9.97301855      10.88667487      -0.25607754       0.22077703      -0.50908885      -0.65893422      -0.76261806       1.28737484
C        7.76040009       3.17504166      16.67141237      -0.10224047       0.06631111      -0.08144403      -0.01578723      -0.03711597      -0.33858695
O        7.72516674       3.05648771      15.54705392      -0.20722163       0.36907973       0.26999851       0.00419469       0.04782918       0.35053384
C       -2.69666383       6.04311372       5.97580441      -0.44206385       0.25348768       0.11428235       0.32885310       0.20344540      -0.16305453
O       -3.58834113       5.46830020       6.34864704       0.01757515       0.08736074       0.01426485      -0.33892200      -0.22779896       0.14471911
C        5.04055785       7.04211993      13.95676085      -0.39327305       0.12627281      -0.22771743       0.29917063      -0.32128442       0.12976360
O        5.80381563       6.26297378      14.25967958      -0.06995750      -0.18358307       0.17335329      -0.33244765       0.32288841      -0.11159193
C        7.89293021       9.93978538      13.48830299       0.18702869      -0.04393913      -0.11718172       0.28010800      -0.06052282      -0.26751858
O        7.12492168      10.08738708      14.29609234      -0.22756876      -0.27097315      -0.06726702      -0.28002325       0.02204075       0.29850667
C       -3.91045363      -2.82533770       8.54442527       0.36289809       0.19894345       0.03481299       1.54853127       0.47386329       0.64854296
O       -2.89738904      -2.50328102       8.96585365       0.24435039      -0.88306193      -0.38554385      -1.53477468      -0.49381965      -0.64649026
C       -4.05572017      -1.55301263       3.30335818      -0.09019210      -0.04038505       0.31156030       0.21059261       0.38484139       0.00428210
O       -3.51913876      -0.55663334       3.30414263       0.26923002       0.17838885       0.64885955      -0.24340402      -0.38140417      -0.01059357
C        2.86466292       3.26378628       3.91758301      -0.15581151      -0.05022910      -0.24360054       0.01622964       0.39570987      -0.57890663
O        2.96368219       3.94153103       3.01454066      -0.04162338      -0.14954649      -0.24983417      -0.01371526      -0.40637444       0.56425117
C        4.21556474      -1.41681484      -0.74925726      -0.37544746       0.20010293       0.17141481       0.02158516       0.26055400       0.16418000
O        4.18137538      -2.37993264      -1.33057104      -0.04352683       0.38951280       0.11925096      -0.01180552      -0.25559094      -0.15419467
C        0.94393783      -3.57565629      10.78929387       0.28768239       0.14910762      -0.18611178      -0.28765130       0.47413272      -0.24402378
O        0.40246718      -2.69433200      10.32637888      -0.41378687      -0.04370577      -0.11595204       0.27912485      -0.45990018       0.26593131
C       -3.52878864       0.43257917       7.40183033       0.13059133       0.01197446       0.11429237       0.62345249       1.11074012       0.27293476
O       -2.97943719       1.39830343       7.65208963       0.36148409       0.26024128      -0.08921670      -0.62246677      -1.07591311      -0.29070399
C        7.69137549      -1.58696846      -3.28696879      -0.01147342       0.10606661       0.19878670       0.08455901       0.23103200      -0.36614740
O        7.90700139      -1.03664831      -4.25216831       0.15776919      -0.04523069      -0.12831606      -0.08513550      -0.21943445       0.37857382
C       -1.30965548      -3.15574713       4.92262856      -0.07853863      -0.24028283       0.35539615      -0.06160545      -0.13475568       0.07000980
O       -1.75816986      -4.08533612       5.38078063      -0.18517022       0.16577481       0.09413454       0.07601899       0.14426521      -0.05866298
C        3.75018218      -1.37742779       3.78430690      -0.15035603       0.23789665      -0.32865843      -0.10280374      -0.00951518      -0.10031236
O        2.98982226      -1.39553642       2.94977771       0.02751012      -0.05505442       0.33372166       0.08338710       0.01776677       0.09987438
C       -2.27053205       3.95331482       9.99167040      -0.21774155      -0.37967553       0.14030972       0.15318880       0.07138198      -0.22319637
O       -1.72463442       4.27422815       9.05529180       0.07354556      -0.31495039      -0.08223572      -0.12688512      -0.07084030       0.22099306
C        5.96477552       7.49379528      17.72351184       0.03245024       0.04653312      -0.20601677       0.31705110       0.47129284      -0.14044547
O        6.58424431       8.40813138      17.47094500       0.10830394       0.35538089      -0.18338642      -0.31244486      -0.46754759       0.12469681
C        2.09859605       3.59970729      10.44201643      -0.16335707      -0.36474421       0.01158172      -0.01583327       0.01780336      -0.01802616
O        3.07990235       4.01400634      10.07066462      -0.26079182      -0.48562576       0.26102900      -0.00972730      -0.01645351       0.00887482
C       -4.34214187       7.08851729       9.62364089      -0.11321068       0.34690087      -0.22025371      -0.65217601      -0.17049126       0.53528377
O       -3.48996828       7.33455075       8.93727112      -0.17986851       0.05943928       0.08793164       0.64913721       0.19672415      -0.51508226
C        6.37832737      -4.61202819       4.21251081       0.15483805      -0.05372084      -0.04212209      -0.25654011      -0.01969297       0.20244705
O        5.51820530      -4.72354516       4.93845313      -0.03526715      -0.33807337      -0.28766723       0.24381055       0.04539774      -0.21225080
C        2.41129183       6.22466166      -3.58745835       0.33619584      -0.16744470      -0.13191692      -0.32533038      -0.09000506      -0.20958441
O        3.33021913       6.52416641      -3.01216822       0.33693731      -0.14684437       0.01016823       0.32628377       0.09376716       0.21194521
C       -0.89985586      10.02709809      13.31253544      -0.18360902       0.31186827       0.07454637      -0.08061554      -0.53549160      -0.30925633
O       -1.00239566       9.04468566      12.75663188      -0.09709396      -0.17442160       0.13420741       0.03030399       0.56076075       0.30780644
C       -1.41849692       0.67338704      11.40455487       0.12524589       0.00236898      -0.22951686      -0.64696924       0.05138191      -0.14338018
O       -0.32619806       0.56439042      11.64098642      -0.42882252      -0.36804699      -0.17839628       0.65287103      -0.06665626       0.14013899
C        6.91649594       2.82792498      12.34238271       0.26161140       0.42341840       0.18294459      -0.12440648       0.29117029      -0.05166099
O        6.52257943       3.86904266      12.14581368       0.15424729      -0.09891846       0.15146574       0.10623126      -0.27154198       0.04845685
C        5.18980697       1.51193375       1.56429179       0.14956557       0.12385687       0.20280563       0.66555756       0.21771965      -1.11770232
O        5.73383635       1.68897851       0.57940801       0.20726307      -0.11589100      -0.10929792      -0.65007220      -0.21628890       1.11502580
C        6.28837629       3.25840706       8.81588257       0.18854299       0.01255406       0.60236980      -0.42113782      -1.00237099       0.45645126
O        6.67564343       4.21267957       8.37896493       0.03166322       0.05956090       0.03440787       0.40976673       1.02873653      -0.47252633
C        7.10301024      -0.46981420       3.81521604       0.10585809       0.04338982       0.00167766      -0.00084875      -0.05072601      -0.05218650
O        7.23544786       0.21031275       4.70491384      -0.52898067       0.09159610      -0.61846284       0.02902745       0.02157178       0.05983249
C       13.11609227      -6.33914778       7.81058780      -0.33121574       0.21752742      -0.06283039      -0.02177945      -0.98197695      -0.21544492
O       13.14131774      -5.24439015       8.04728106       0.13572262       0.29848536      -0.05460843       0.01012547       1.00787861       0.21588461
C       -1.25284451       6.12995645      -1.45317358      -0.18329201      -0.07592008       0.03891650       0.36087882      -0.03970744       0.07216421
O       -0.16430563       5.98900041      -1.17770098       0.21055282      -0.24768130      -0.23260817      -0.35885012       0.04118089      -0.11276638
C       11.08174398      -6.13100676       3.49694090      -0.23648522      -0.11356435       0.18984084      -0.29103195       0.62985541      -0.33920494
O       10.66575389      -5.20501459       2.98964330       0.23109509      -0.09186216      -0.25380040       0.28019727      -0.62577199       0.35127099
C        3.42755466       4.61673817      -0.05308947      -0.10477590      -0.30648071      -0.16925264       0.29776823      -1.39899835      -0.30452539
O        3.19537654       5.68940287       0.15089408      -0.42231141      -0.16534049       0.25722634      -0.29865463       1.42490491       0.29452242
C        3.33639638       3.16201516      14.04052389      -0.00490073       0.11693970      -0.10145310       0.29869730       0.34517743      -0.13659024
O        2.63860346       2.33364870      14.34105949      -0.05896383      -0.13869305      -0.09892934      -0.29856171      -0.34015150       0.11958822
C        6.10706180      -0.77088472      13.95079309      -0.18521994       0.00352829      -0.23956635      -0.44450696       0.44294542       0.22292199
O        5.35511940      -0.01558691      14.33840719      -0.12172582       0.07402554      -0.36515911       0.44659578      -0.42606445      -0.24103758
C        4.20607424      -0.20881751      10.37407230       0.12553232       0.38425741       0.00243054      -0.15028873       0.20857261      -0.05931290
O        3.53554457       0.63737769      10.03947835      -0.05601370       0.09282601      -0.18250053       0.15554626      -0.20133656       0.06701023
C        3.49015608       2.00211260       6.90801138      -0.30648238      -0.31318510      -0.14285401       0.14320963      -0.45224614      -0.20450437
O        3.79473995       1.04645997       6.38306068       0.47270284      -0.10627009      -0.15514917      -0.13498847       0.41698274       0.23303518
C        0.67723962      -0.03005713       8.17729278      -0.15559415       0.18282679       0.07775862      -0.00837231       0.01837988      -0.02327994
O        0.18404498       0.96601917       8.36811508      -0.17355522       0.18780581      -0.08756388      -0.00292743       0.02597118       0.01108432
C        6.23680627       3.27718247       4.98833108       0.00256119      -0.09251544       0.00599354       0.73040730       0.09689378       0.00219338
O        7.36230403       3.41292959       5.01520925      -0.20651228       0.07962848       0.08633496      -0.70415325      -0.06913348      -0.01750728
C       -3.00650415       7.39276437       2.34691694       0.24883039      -0.08504371      -0.15584596       0.01484611       0.05050650      -0.10923089
O       -2.91326854       7.94744060       1.36779772       0.14860322       0.18044069      -0.50074898       0.00234439      -0.04991660       0.11809430
C        9.53311443       2.68563650       1.77649253       0.07338670      -0.18572582       0.29279967      -1.46929491      -0.46122670       0.38844016
O        8.48049837       2.34608547       2.05761296      -0.11281703      -0.19636382       0.01987945       1.46742108       0.47417245      -0.36272365
C        0.25038076       7.63962424       5.23234017      -0.36137472       0.00944920      -0.25023294       0.45862216      -0.55168181      -0.44092648
O       -0.34613618       8.38853157       5.81646298      -0.25112039      -0.24777944      -0.38631390      -0.41466757       0.56964738       0.44407956
C        6.06786016       8.11478180       6.88238657      -0.12914238      -0.02055367      -0.05086473      -0.56812177      -0.10235382      -0.21986442
O        7.10603184       8.28447805       7.27412548      -0.03247140       0.13285604      -0.13196341       0.56146732       0.06767277       0.23601357
C        7.90753256      -2.78731271       1.18768732       0.03541327      -0.09454410      -0.22706454       0.32268428       0.37173185       0.77813951
O        7.48443546      -3.25015961       0.25837361       0.05670533      -0.04715406       0.16971376      -0.36080663      -0.37211895      -0.75301213
C       -0.13975167       0.52189720       4.41535813      -0.44687581       0.09340104       0.27296022      -0.41790262      -0.06908961       0.22793470
O       -1.11645958       0.39978987       4.97477722       0.14076327      -0.21299238      -0.12575716       0.47066596       0.04728549      -0.21075891
C        1.64611757      -5.06242749       3.67954924      -0.08207386       0.07957180      -0.07441324      -0.36156254      -0.15552093       0.22281429
O        2.53355376      -4.67107542       3.11049068       0.08049917       0.06314612       0.08140551       0.36683177       0.16094148      -0.21541077
C        3.90423285       5.52802811       6.41081958      -0.07495854       0.08351760      -0.07398135       0.02444095      -0.04734763      -0.07602734
O        3.43996828       5.87958518       7.37536326       0.15993574      -0.04419622       0.13845389      -0.06185907       0.05248227       0.10732569
C        1.51705106       1.33004657      -0.47006609      -0.16721245       0.40405211      -0.14665094       0.79739825       0.01898701       1.16790330
O        2.16157609       1.34202590       0.47026124       0.05704233      -0.10629360      -0.04187566      -0.81641676      -0.01112150      -1.16163594
C       -0.14763016       3.61799299       6.05069831       0.10529076       0.36227671       0.22093148       0.39923869       0.19975114       0.25039289
O        0.73514472       4.04674770       6.61452840       0.11108818       0.14420289       0.18058828      -0.40596336      -0.17686750      -0.23567057
C        6.98644437      17.97164504       9.33039411      -0.15270408       0.00304257      -0.11336720       0.58513060      -0.14268300      -0.18834697
O        8.01739012      17.69966891       8.94709076       0.38865569       0.14036853       0.15480554      -0.55184345       0.14883275       0.19301125
C        4.86556393       9.84324578      -4.80804504       0.14901773      -0.09317027       0.20190874       0.19068686      -0.37078100       0.07434763
O        5.39799401       8.85536524      -4.66283599       0.01000791      -0.40986450      -0.17918087      -0.21671413       0.39341770      -0.06533255
C        8.76032504      14.93912835       4.94795817       0.19324184       0.27911124       0.23979827      -0.01918602       0.03429789       0.11035236
O        8.76915322      15.02300261       3.82397677      -0.23842229       0.02324016      -0.13336991       0.00786290       0.01401194      -0.09958856
C       -3.59884514      10.40134930       6.25259028      -0.28894227      -0.06647172       0.71942885      -0.17931595       0.18954972       0.50420134
O       -3.22591042       9.94129503       5.29779523       0.29243160       0.18662336      -0.29478338       0.13896739      -0.24116432      -0.45681671
C       10.59261199      19.96555053       3.02228926      -0.02225907       0.04191320      -0.12639379      -0.73933973       0.20571716      -0.51887679
O       11.47944461      19.75498655       3.67427798      -0.42736792       0.32117657       0.28961657       0.73762790      -0.18669183       0.53808613
C        6.15804044      13.75464173       8.49170553       0.11391549       0.19367349       0.09849933      -0.12953652      -0.27995314      -0.09702724
O        6.69691675      14.67057767       8.86155845      -0.04528832       0.13161674      -0.22500586       0.18627172       0.27592349       0.08951337
C       -0.51826663      15.77586570       9.46328113       0.05266194      -0.25645660      -0.41186294      -0.01837583      -0.71605834      -0.05020871
O       -0.56271173      14.64537232       9.38393522      -0.29568570       0.06371668       0.65665506       0.03044613       0.70089586       0.04982171
C        0.95183826      17.69258056       1.54093288      -0.21137386       0.11922752      -0.01600469       0.19912246       0.47820588      -0.74211701
O        0.70941027      17.07209192       2.44227782       0.31290081      -0.18989147      -0.09218824      -0.17667422      -0.49801864       0.74939912
C        4.41552243      16.18535953       3.58995053      -0.16466269       0.14905574      -0.20586185      -0.27889647       0.66232597       0.06057464
O        3.99242915      17.23434604       3.66965266       0.43696319      -0.04393047      -0.11319395       0.27177300      -0.68442336      -0.03690010
C        4.88248087      15.47127528      12.47728625      -0.02205076       0.05300010       0.16341161      -0.18806039       0.14560944       0.82727547
O        5.02365759      15.37531032      11.36894853      -0.15497446      -0.24231722      -0.13178712       0.10218379      -0.07215620      -0.83473285
C        2.28836874      10.59769156      16.98653503       0.07041809       0.27215542       0.29958545       0.16081345       0.07137830       0.12158558
O        3.10881642      10.98754932      17.65878870       0.09610701      -0.02267619      -0.05116420      -0.15782267      -0.07888362      -0.13729315
C       -3.66935305       3.05648835       3.50909218       0.24904689      -0.13644429       0.32942969      -0.29919153       0.11918368       0.03969177
O       -2.63945099       2.61636202       3.39900792       0.08718132       0.13431963       0.06271877       0.28720587      -0.11323476      -0.02652424
C        1.58035005      14.82437133      13.41864399       0.00500423      -0.01806827       0.66928134      -0.16602652      -0.07385738       0.22437673
O        0.95812178      14.58675385      14.33184007      -0.12246650       0.22500436      -0.52326187       0.15744498       0.05871387      -0.22451911
C       -1.04437655      10.49277655       3.20733801      -0.17973695       0.43843983      -0.17937823      -0.08104923       0.31027154      -0.07198766
O       -1.38523767      11.56955642       3.14877322      -0.52601844       0.30257541       0.20429203       0.05159365      -0.35022474       0.05234500
C       -2.31168689      13.75374444       5.87633066      -0.04505114      -0.23626235      -0.16733926      -0.55492150      -0.01200665      -0.02429490
O       -3.44155018      13.69827978       5.83012451      -0.03573991      -0.14537320      -0.05419558       0.53103018       0.05037708       0.01030485
C        5.80691161       6.57252276       3.31208951       0.04994624      -0.00512042       0.22613436       0.82819846      -0.24889281      -0.25114676
O        4.77561857       6.87525063       3.62807115       0.04955779       0.49568320       0.32717311      -0.82365995       0.20327397       0.21658793
C        1.10576044       6.78759052      13.58546026      -0.03326002      -0.28751574       0.16989266       0.24781023      -0.37452394      -1.12419791
O        1.30817738       6.45664751      12.51558848       0.41327240       0.03407498      -0.14310170      -0.22519787       0.33469233       1.11970244
C       -0.04323157       4.77315006       2.01046615       0.27120513      -0.01468826       0.15863131      -0.29913667      -0.12187129      -0.12940572
O       -0.99813538       4.42837320       1.51146571       0.33104874       0.01494992       0.19988980       0.30887075       0.12691997       0.15423959
C       -1.53478373      11.27653175       9.42661271       0.16739582      -0.13206804       0.21180048      -1.23295572       0.32768317       0.01202001
O       -0.45556380      10.98446695       9.41935886      -0.30913108      -0.72637466       0.02039381       1.24648601      -0.29544341      -0.01166462
C        5.20102655      12.74205885      14.68207421       0.12415654       0.29820209      -0.18023274      -0.25583980       0.02026225       0.09462720
O        4.14844388      12.91005378      15.05752964      -0.18490602       0.32606354       0.17606008       0.22213821      -0.04245066      -0.08758449
C        2.75391256      13.18187733      10.26863643      -0.01282613      -0.22143117      -0.09787533      -0.05501235       0.06016743      -0.02115431
O        3.48028967      12.34280439      10.06776196      -0.07431510       0.36436567       0.34567511       0.03096874      -0.00241331       0.01043543
C       -2.58690778      14.21255162       1.55437232       0.19037258       0.22252781      -0.25980800      -0.61061131      -0.39176805      -0.03927910
O       -1.65566881      14.83717442       1.59906801       0.50636506       0.23005286      -0.30455739       0.62322000       0.38571001       0.02689871
C        6.94841510       6.17630217      -3.56337763       0.11104236      -0.07628486      -0.25874557       0.29369274      -0.28943012      -0.06443815
O        7.77425547       5.45643110      -3.84714911       0.17207154      -0.04050915       0.36170196      -0.27972110       0.26178119       0.08381470
C        9.44051615      17.36323199      -2.08639593       0.08857393       0.39929422      -0.04263531      -0.32418958      -0.71811862       0.32573922
O        9.01734581      16.41103997      -1.63580598       0.77914237      -0.38007842      -0.42330238       0.31629302       0.71895188      -0.39594436
C        2.05152985      19.60636877       4.86707697       0.11342141       0.07166886       0.12761486       0.03625085       0.04579181       0.23442375
O        2.33708854      19.75861150       5.94999282      -0.03219366       0.58258262      -0.17561106      -0.04884737      -0.05260456      -0.23468299
C        6.89298298      11.26861299       5.79790123      -0.17569465      -0.10042770      -0.19405597       0.09479289       0.05130173      -0.00500906
O        7.81214819      11.92306802       5.78965200       0.06997027      -0.24656644      -0.23666681      -0.08454389      -0.07104946       0.01098051
C        3.00039077      10.03804597       7.92732864       0.56895559      -0.33734447       0.29557695      -0.16045376       0.48018568      -0.86994700
O        3.15845755       9.45763667       8.87228048       0.02518370      -0.04955580       0.44437697       0.14226344      -0.51979648       0.81467551
C        3.17359244      10.00733931       4.05533917      -0.13902836      -0.26988396       0.16510077      -0.27459701       0.04293448       0.09090842
O        4.21434332       9.76258356       3.70309792       0.03844784      -0.05712598       0.39202092       0.26514591       0.00050938      -0.09547479
C        4.15056380      13.38696726       5.87120957       0.01989065       0.00819643       0.33024057      -0.03358664       0.00034045      -0.10287849
O        4.01032928      13.12936794       4.78099664      -0.36651469      -0.16674207       0.45756274       0.01301072       0.00223459       0.09908390
C        8.55406215       9.39157482       2.70578959       0.03964816      -0.19092496      -0.01342149       0.08259678      -0.32940375      -0.21770152
O        8.80715358       8.43195055       2.16264554      -0.15925049       0.10165742      -0.47634991      -0.10044281       0.38857666       0.17487525
C       -0.13016632       7.83871043       9.59657868       0.20204627       0.07759489      -0.06605967       0.68758644      -0.74513363      -0.91474239
O        0.44930979       7.24653576       8.81439391      -0.20056759      -0.14868297      -0.01723209      -0.66974401       0.69153301       0.91461615
C       -2.05535067      11.04992602      -0.71034219       0.09228325      -0.28582689       0.05896362       0.54196585       0.17463919       0.38151606
O       -1.16332106      11.33445952      -0.07016661       0.62582829       0.05822968      -0.02473124      -0.53829734      -0.17193989      -0.40998841
C        0.68589323       8.46541657       0.84696497      -0.14973318      -0.08738805       0.00073842       0.39728693       0.21985947      -0.28901210
O        1.50141430       8.94205875       0.22216317       0.48650459       0.12585081       0.16771763      -0.38132436      -0.21703741       0.31138449
C        4.48516403       4.53989342      -6.27449794      -0.14545612      -0.01879271       0.28960970      -0.05589198      -0.24964970      -0.00163679
O        4.78181227       5.62481311      -6.21867192       0.02023584      -0.01645473      -0.03918201       0.06540771       0.24726636       0.00159505
C        3.75874526      16.93839954       8.18044484      -0.20588318      -0.20128523       0.01068122      -0.05096233      -0.00539868       0.06823901
O        4.52089620      16.96142534       7.34957152       0.22346494       0.17686783       0.04853751       0.04947775       0.00085698      -0.07177325
C        7.67881737      18.87493999       5.34666599       0.18951712      -0.40816830      -0.05511802       0.19833274       0.62561152       0.26989797
O        7.34786178      17.88738602       4.92805319      -0.17762958      -0.08626441       0.42942239      -0.21491869      -0.61855641      -0.26513424
C        4.95428390       6.90640996      10.21456855      -0.19999358       0.23621867       0.11218785       1.14429958      -0.09247054      -0.74204911
O        4.01412521       6.96177454      10.81483536       0.15646904      -0.13373139      -0.04974534      -1.15791980       0.07697656       0.72798581
C        4.61851576       9.10054405      -1.08005380      -0.23012169       0.14199539      -0.01106208       0.34812361      -0.01898840       0.59488689
O        5.15762643       9.06204183      -0.08344308       0.07935035       0.19009517      -0.13906133      -0.32353008       0.01479750      -0.58669772
C        2.26223299      10.15915100      12.22226754       0.20882296      -0.06989402       0.12586216       1.41350609       0.13904697       0.62646539
O        3.29750621      10.28724904      12.68474320      -0.15855368      -0.38374850      -0.12929277      -1.39467484      -0.16425102      -0.59832119
C        6.20036895      12.74794538       1.85111629       0.22455944       0.13916189      -0.17236679       0.00177765       0.00865066       0.02298064
O        6.75159625      12.81830954       2.83305634      -0.23130222       0.12041237       0.07012032      -0.03699696      -0.00968582      -0.02302687
C        1.28179949      12.71924740       2.18485712      -0.02769789      -0.25356448      -0.03410641       0.02476283      -0.11384727      -0.10057479
O        1.67372496      13.72218538       2.51563637       0.33612154      -0.13019558      -0.22206870       0.05173652       0.16542223       0.07521919
C        7.51419670      13.30632014      -1.89486730      -0.10071889      -0.14604461       0.20874942       0.39392857       0.46653463      -0.24065066
O        6.84989895      12.48932563      -1.50524534      -0.62138657       0.15743843       0.13640376      -0.40241234      -0.48849783       0.23189499
C        0.26933186      14.72141759      -2.35799923       0.37499743      -0.02892165      -0.20512900       0.34299519      -0.01772502      -0.33475077
O       -0.50584670      14.79560867      -1.54707734      -0.10279843      -0.22565738       0.06431135      -0.34097646       0.01997625       0.35644516
C        9.82366979      12.68911382       0.99387990       0.08625567       0.40114638      -0.09027010       0.05489452      -0.87553313      -0.63355179
O        9.88117020      11.78640750       0.30394486       0.07601753      -0.05416591       0.01506661      -0.08625787       0.85040127       0.67842867
C        2.01785380      11.69067950      -2.19337085      -0.14791800      -0.04488919       0.40877260       0.02122923      -0.02644775       0.03471095
O        2.81182191      11.94218584      -1.43219019      -0.35853556      -0.44009612      -0.11151678      -0.02457998       0.01023665      -0.00644568
C        0.68552417      12.53724226       6.57002576      -0.42456231       0.02019831       0.19285873      -0.00280402      -0.19208185      -0.30442741