480
Properties=species:S:1:pos:R:3:momenta:R:3:forces:R:3 Energy=0.0 kcal/mol=T energy=-11.617108725067734 pbc="F F F"
C       29.32407814       8.97735360       4.70984908       0.05661664      -0.28097722      -0.34929702      -0.23661446      -1.13613972       0.10073442
O       29.11861740       7.86365794       4.81748596      -0.24813817      -0.47753467       0.20984388       0.18262880       1.13740909      -0.11205439
C       28.59548823       5.45706730      -2.73159111       0.03590175       0.05906090       0.01560148       0.22280030      -0.06398265      -0.39635858
O       29.18498861       5.40899820      -3.69627808       0.13745660       0.12410903      -0.07964832      -0.22659527      -0.00987062       0.39565484
C       24.91180906       3.60622706       3.84121335      -0.47774809       0.14040287       0.27932712       0.17423782      -0.67736188       0.26892873
O       24.68870917       4.58851799       3.34833831       0.03371877      -0.27636531      -0.06375937      -0.17268682       0.66381483      -0.34338882
C       19.71046844      10.90239419       3.62037951       0.05823319      -0.01689117      -0.32924242      -0.01742933       0.06005020       0.04183640
O       19.52669706      11.86578812       4.17955409      -0.09190366      -0.65518143      -0.00107106       0.01486696      -0.08980149      -0.03515757
C       25.25457361      11.52426198      -1.58545737       0.30263978       0.13161705       0.20119914      -0.03586449       0.12884906       0.26030111
O       25.42994552      11.03109258      -2.58208095       0.19993396      -0.23863229       0.09452324       0.04232352      -0.14137736      -0.25091188
C       28.40765603      -0.69205197      -0.34088972       0.13029195       0.50972912      -0.31487078      -0.05419827      -0.09362628      -0.03759897
O       27.45177688      -1.15664809      -0.72158394       0.38916644      -0.12661928       0.23733702       0.05262851       0.05104903       0.04800825
C       30.32519038      15.58378599       8.11156389      -0.12537917       0.06142299       0.29525437       0.09920561       0.46046039      -0.59675957
O       30.47345817      16.26007027       7.21323862      -0.28183949      -0.06974482       0.58940025      -0.09603695      -0.44466783       0.61231245
C       31.32675941       4.58710877       3.66480428       0.29250794       0.25054087      -0.15134343       0.29518108      -1.13947245      -0.25402891
O       31.57721107       3.50328772       3.42239577      -0.37754515       0.11138676       0.24957096      -0.28125235       1.14303348       0.24235507
C       30.62107692      11.30222824       1.12980642      -0.06784835      -0.42528407      -0.02177822      -0.39106194       1.01160247       1.54682395
O       30.38878603      11.91642292       2.06718286      -0.03391720       0.27170782       0.15421766       0.37363565      -0.99737634      -1.54249763
C       28.21756396       1.80437725       4.11290693      -0.18561934       0.21392168      -0.07160508       0.04867282       0.62816449       0.50662694
O       28.15688402       0.95365535       3.38443826      -0.30113840       0.28395733      -0.07597479      -0.03205397      -0.59106847      -0.53817201
C       29.17806673      12.67139514       6.08111016       0.05262394       0.23963818       0.10850504      -0.47222854      -0.24603281      -0.09089173
O       28.18671116      12.15041059       5.91387442      -0.18659058       0.16764557       0.10949937       0.52430040       0.25499607       0.09153315
C       18.81421541      -0.21653336       3.20202888       0.02826944      -0.12729019       0.16911886      -0.47613588      -0.06527826       0.10784165
O       17.72737671      -0.37834599       3.47577591       0.43747156      -0.05160095       0.13510397       0.50511161       0.06802248      -0.14695114
C       23.63224805       9.87273368       1.09687775      -0.05943212      -0.54027868      -0.27569611      -0.49509635       0.93749494       0.19273516
O       23.11445449      10.86626526       1.28919603       0.49302294       0.19276684      -0.10342317       0.46597515      -0.91735770      -0.17616715
C       14.83804862       5.83355929       6.24623429       0.06033849      -0.23367467       0.23478860       0.38362319      -0.56287248       0.67009063
O       15.28177689       5.15111880       7.03890144      -0.30990671       0.49162363      -0.22315792      -0.38213865       0.57486139      -0.65940707
C       19.36893526       8.17324318       1.10691620      -0.12979369       0.07452861       0.28930376       0.62425825       0.23754119      -0.59012497
O       20.17097958       8.47638444       0.36266387      -0.15459955      -0.11633448      -0.27099915      -0.59140184      -0.22377111       0.54880807
C       19.52278801       8.26038401      11.40060182       0.04976643       0.24637912      -0.09948300       0.14308046       0.19348131       0.02163282
O       20.20798577       9.12690786      11.63791073       0.03962686       0.14506896      -0.07450932      -0.15875653      -0.19174710      -0.00441477
C       23.35032482      10.61694923       5.60604346      -0.11647520      -0.08539803      -0.01301835       0.17236257       0.04123208       0.41187360
O       22.94476441      10.32657258       4.59814949      -0.12877338      -0.25806313      -0.35999835      -0.16581201      -0.09966585      -0.41278465
C       26.90380481      14.62249546       1.81163698      -0.10153797      -0.08037831      -0.02391137      -0.50033262       0.30840695       0.00983253
O       25.92309023      15.18928759       1.84596731       0.17626707       0.43532741      -0.08434386       0.50184778      -0.30979523      -0.00808996
C       26.44942091      11.42705847       3.06125194       0.26355980      -0.09745854       0.10424955       0.05451347       0.11035749      -0.13152465
O       26.18416626      10.70818355       3.88713471      -0.01740147      -0.23504404       0.01230393      -0.04404968      -0.12600631       0.12533629
C       26.28570518      10.04450288       7.61568829      -0.19461160       0.10214734      -0.43674637       0.13036693      -0.14612817      -0.09573005
O       26.91112555       9.30234532       7.03707946       0.12327107      -0.21697963       0.49878533      -0.15170885       0.14794982       0.09821517
C       24.62778375       2.37018492       6.58324760       0.03623026       0.15878444       0.21197113       0.04170833      -0.23039032       0.02533051
O       24.82393443       1.29557698       6.29557194      -0.25190334       0.22005981      -0.04370561      -0.00170064       0.18669986       0.06003553
C       22.64259565       1.06250909       2.17294491       0.48827185       0.23845304      -0.19341272       0.04836222       0.06132674       0.08193863
O       22.09025450       0.71319651       1.25472688      -0.38924130       0.01747858       0.22184282      -0.07272493      -0.02516275      -0.09773156
C       15.91673330       5.34235511      10.98724538       0.15792023       0.16521713       0.21156337      -0.01183265      -0.00501621      -0.00293036
O       16.72391780       5.55432678      10.22844312       0.03825645      -0.04924119       0.47886397       0.01078262      -0.01441396      -0.00075896
C       14.06916637      -0.84830014       4.16456144      -0.16636177      -0.34099346      -0.19062884       0.54710131       0.38885288       0.38937722
O       14.85511861      -0.27902254       4.75237169       0.10005582       0.11104036      -0.14042077      -0.54663293      -0.36998667      -0.36465006
C       15.03119341       1.33159725       0.52897755       0.17982239       0.03443025       0.18512192       0.69667189       0.03335653       0.06752447
O       16.16029087       1.38320908       0.62099815       0.24865817       0.29055271      -0.51689441      -0.67866682      -0.03045029      -0.05079478
C       21.17789168       5.30904721       9.55958991       0.33590772      -0.04082434       0.41943376       0.03447619       0.01950525       0.03117043
O       21.61878162       4.32932151       9.21540156       0.68063684      -0.11370602       0.07157990       0.00036778      -0.01132500      -0.00195883
C       27.98388662       4.93479860       2.53057463       0.21966659       0.00014053      -0.08090361      -0.51112370      -0.33498953       0.67001456
O       28.60349037       5.34467973       1.69206868      -0.50625551       0.27276621       0.35843605       0.51172224       0.36321735      -0.69490803
C       21.92784289      14.22971107       3.21924083       0.11843946       0.05902944      -0.22708595       0.05807492      -0.03606637       0.56586424
O       21.85962897      14.26734570       2.09869996       0.04603654       0.05717275      -0.38282109      -0.03673597       0.02010438      -0.56467406
C       22.28406391      -0.72916150       5.16188132      -0.09716925       0.04156625       0.17681805       0.30633348       0.26019306       0.05547193
O       21.42777075      -1.44909553       5.04408211       0.13343500       0.27193723       0.14557729      -0.29857715      -0.24390147      -0.03167992
C       15.85172868       8.77331698      10.04783883      -0.15979998      -0.02925079      -0.17416495       0.32100844       1.18480775       0.10055174
O       16.15912887       9.86553427      10.14026697       0.08329455      -0.20665507      -0.03615445      -0.31216069      -1.17928837      -0.07899148
C       22.99408508       7.58455849      -2.29791071       0.33578014      -0.15062929       0.39292829      -0.00837585      -0.38841811      -0.16861548
O       22.93187581       8.61350864      -1.84826544       0.28577481       0.09353141       0.15076773      -0.01921520       0.40320864       0.15095804
C       20.89879164      13.68503189       7.13342352      -0.35324029       0.11269545      -0.23879307      -0.34095027       0.36168121       0.20544417
O       21.61672234      12.92321870       6.72428302      -0.06052927      -0.25769833      -0.14449696       0.30953802      -0.33716625      -0.18994678
C       16.64968183      10.01396250       6.39271426      -0.08609354       0.13156361       0.14203910      -0.36688298      -1.20912359      -1.21971272
O       16.88738682      10.78503336       7.16150218       0.37743850      -0.03151121      -0.24545802       0.39507513       1.20116602       1.19335236
C       14.54684340       4.78459116       2.29861373       0.00281815      -0.01434754      -0.05892824       0.37422480      -0.46406433       0.74233492
O       15.00891256       4.24017278       3.18248046      -0.03188806      -0.07786526      -0.35821524      -0.37647432       0.45824191      -0.73635625
C       23.30077632       6.70686428       7.08951616       0.08682247       0.27367905       0.18046469       0.13503982      -0.11413172      -0.24647532
O       23.74337214       6.24651779       6.15705528      -0.10646327       0.03623588       0.06335743      -0.08762058       0.10463574       0.25260548
C       23.83590977      12.09201614      10.25992140       0.18543019       0.09276063       0.38604572      -0.38165345      -0.06484069      -0.01164898
O       24.94366166      12.28359883      10.22170367       0.54940099       0.10999763      -0.17180675       0.39216829       0.06829513      -0.00488822
C       18.95024545       6.02274502       7.29948396       0.32903033       0.05974155      -0.22080053       0.12646781      -0.15832256      -0.06503248
O       18.21514255       6.81937762       7.60441634       0.08713967      -0.29815981       0.15475746      -0.14323684       0.17071777       0.05077199
C       16.40751844       8.02406470      14.26402101       0.12655335      -0.16829410       0.36588069      -0.03939078       0.13016375      -0.09231231
O       16.59241377       7.02162145      14.74438440       0.01960942      -0.06884820      -0.14104343       0.01405929      -0.14260758       0.07553112
C       17.08017164      11.30033860       0.56185089       0.10030999      -0.30679285      -0.47069602       0.24484800      -0.18329422       0.14360377
O       16.27672330      11.91842930       0.07303667       0.04503013       0.06975025       0.25384544      -0.23274602       0.17470752      -0.14017601
C       17.18453208       7.21021459       3.36140417      -0.03126295      -0.12347997       0.12857009      -0.16271771       0.07373333      -0.13645178
O       17.78130421       6.86201467       4.25124906       0.01718539       0.17503318      -0.09825447       0.11078814      -0.07004314       0.16256355
C       22.57865393       5.52211155       0.83293287       0.12219066       0.09129490      -0.48178747       0.22793884       1.06298103      -0.36968020
O       22.36248500       4.48166051       1.18340419       0.27361223      -0.36961699      -0.16278395      -0.22230050      -1.05712236       0.35980166
C       24.42012914       4.05802866      -2.94738777       0.06418332       0.01704829       0.23466235       0.00154090       0.01799473       0.01150269
O       24.23625123       3.03639052      -3.38795247      -0.30428704       0.02682017      -0.33758097      -0.00871279      -0.04504494      -0.01114737
C       25.80415856       6.45711156      -0.77165514       0.41988170       0.24594308      -0.41536315       0.21878170      -0.80889075       0.29811026
O       26.07042953       5.41955403      -0.39483017       0.09422703      -0.28458184      -0.45986276      -0.21355754       0.80726061      -0.26611696
C       19.07102575       3.52706627       1.78549664      -0.07444029       0.23045258      -0.02960535       0.03989899      -0.13988873      -0.02188010
O       18.74277584       4.59910638       1.90150220       0.05036863       0.04667963       0.11231617      -0.02587009       0.11019889       0.03623499
C       17.55088199       2.79900024       5.03057480      -0.19559199      -0.27593025       0.04325667       0.07972072       0.22680149       0.88946198
O       17.64299295       3.07485257       6.12839781       0.40064492      -0.08044207       0.11203064      -0.07338784      -0.22482115      -0.89641840
C       21.08378454       6.78512551       3.76065205      -0.27721472       0.13682274       0.12941057       0.00161067      -0.13963091      -0.22452930
O       21.13652302       7.36827773       4.72190567       0.14878899      -0.14691284      -0.41367502       0.00292102       0.16186876       0.21816579
C       28.51012171       9.20556345      -2.96864833       0.43972957      -0.01780771       0.10944734      -0.05416476      -0.61279944      -0.85223419
O       28.44011562       8.52007812      -3.87311343      -0.00812866       0.21397805       0.42500353       0.04596378       0.66005054       0.83262849
C       21.26705646       2.97001598       5.26877343       0.01706462      -0.45933206       0.34745239       0.20841628       0.92730445       0.31559020
O       21.52190781       4.02023357       5.62131189       0.55231305       0.48702484      -0.00467488      -0.22322428      -0.94086427      -0.30796720
C       21.10977384      11.91910803      -1.77440121       0.15875273      -0.35213015       0.37275461      -0.10711338      -0.15114395      -0.31234779
O       20.77437157      11.47751481      -2.76059680      -0.27437074       0.06521128       0.33852041       0.11578968       0.13271704       0.32999603
C       25.51215392       7.61471447       2.85354438      -0.16722444      -0.06379596      -0.24676498       0.14719164      -0.02742278      -0.08040478
O       24.56266992       7.70567573       3.45238546      -0.28538574      -0.32760947       0.76490369      -0.14916304       0.03189487       0.10224213
C       16.57058244       5.97739857      -0.26536272       0.18238498       0.07058029       0.05862840      -0.08204796       0.14465503      -0.08662576
O       16.05585711       6.90454921      -0.65427248      -0.64513771       0.25190729       0.29781090       0.09094452      -0.14160582       0.07656273
C       21.63154056      -3.58759108      -1.82901119      -0.04113142       0.03769597       0.06135535      -0.06000846       0.02229245      -0.06500241
O       20.96031109      -3.01717572      -2.53512887      -0.13791039       0.05409508       0.24273411       0.04711828      -0.04611120       0.05439916
C       21.45316176      -4.75048430      14.70134739       0.14844753      -0.14303421       0.11831660       0.04351434       0.16207157       0.05494682
O       21.69076720      -3.73436355      15.13338104       0.32989697       0.35256832      -0.14005512      -0.02864186      -0.14040873      -0.07622049
C       19.59776519      -0.22680715      -0.97809768       0.24705510      -0.06645354      -0.03948326      -0.24182050      -0.51682728       0.37911385
O       19.99525696       0.62964099      -1.58545533      -0.08807648      -0.12762823       0.21789204       0.24621084       0.52991720      -0.35494681
C       20.35426189       4.67951403      -2.40528354       0.00345564      -0.11577923      -0.07580873      -0.11127468      -0.01134366       0.36672019
O       20.03450327       4.67309594      -1.31989992      -0.20478705      -0.03524976      -0.40774094       0.11417958       0.00956404      -0.36515614
C       18.62125865      -0.51905691      10.99638770      -0.07353566      -0.03949606      -0.08589093      -0.17407440       0.71053106      -0.23320136
O       18.87046980      -1.56104149      11.32843467      -0.16485032       0.31680279       0.41366001       0.18901844      -0.73646265       0.20464470
C       14.95169524      -2.18853186      14.77567402      -0.04825778      -0.12554070      -0.26151318      -0.07120920       0.07191748       0.22156932
O       15.32358853      -2.48013892      13.75348879      -0.56534576      -0.00709217      -0.12442228       0.09170481      -0.06486873      -0.23512936
C       14.37312911      -1.51130821       9.37941858       0.39396962       0.09798049      -0.19814577      -0.66372034      -0.02444588      -0.61034422
O       15.20262210      -1.47809463      10.13219429      -0.02648623       0.06264640      -0.01539457       0.69488047       0.02285165       0.61578550
C       18.57828579      -0.34954025       6.89079719      -0.04916545       0.35614558      -0.08954604       0.05981848       0.07555054      -0.06685825
O       17.97422849      -1.00558730       7.57968654       0.29477630       0.21670917       0.47517858      -0.09549926      -0.03866341       0.06959095
C       18.16436233      -4.90954447      10.97924290       0.12053968       0.05455862      -0.07897010       0.07904426       0.04156005       0.17848764
O       18.59554564      -4.72044437      12.00603438      -0.23883709       0.12973114       0.13489497      -0.07172792      -0.04274501      -0.16675318
C       25.24332039      -4.20868542       4.94947519      -0.11794324       0.35693717      -0.19909490      -0.52209997       0.14130491      -0.03783533
O       24.16670349      -3.85969386       4.90276158       0.01115046       0.03559907      -0.06070947       0.51178652      -0.16599731       0.02430877
C       23.80794076      -0.98381030      -1.48138195       0.41936487      -0.47615095      -0.00326741      -0.05101976       0.07069803       0.12554891
O       24.43462286      -1.38471976      -2.32772171      -0.43303234      -0.12313010      -0.54239772       0.08509362      -0.03966592      -0.10648481
C       20.74631985       9.59796480       8.24173059      -0.05189215      -0.12926336      -0.00625956       0.11684090       0.00496041       0.11997930
O       20.05831181       9.58636906       7.34933887      -0.15987695      -0.51605252       0.05912753      -0.12056518       0.01361522      -0.16956010
C       22.21148667      -2.75134464       1.92108026      -0.10511550      -0.01422016       0.11542047      -0.82841020      -0.39885667      -0.38800107
O       21.28866478      -3.23727433       1.47092809      -0.42933770      -0.19741492      -0.10879929       0.79298453       0.42762546       0.41540160
C       28.15559221      -1.18840108       5.74230659      -0.05445854       0.19885100       0.04290800      -0.32778675      -0.20369762       0.10514509
O       27.25679244      -1.84630644       5.93545867      -0.24119129       0.09129945      -0.00688601       0.27702821       0.22248783      -0.05867924
C       31.47168391      14.94882753       4.35906967       0.17050870      -0.19662434      -0.02077931       0.59518375      -0.32130701       0.20569293
O       32.40892879      14.43283537       4.73546766      -0.05394478      -0.28848130       0.21760336      -0.59832278       0.33664618      -0.21924863
C       20.18263243      -3.24890431       8.20290001      -0.16114289      -0.03980695      -0.27633919      -0.42690223       0.29851525      -0.44804357
O       20.88387099      -3.73604250       8.93118586      -0.34063143       0.30281189       0.10384182       0.45676620      -0.30790035       0.47238923
C       18.46889462       2.40922769       9.43662324      -0.09879304       0.18834282      -0.07513235      -0.33023845      -0.70041256      -0.77350227
O       18.81063720       3.14066901      10.21239496      -0.34505160      -0.20414782       0.00704109       0.30029778       0.67834736       0.71282118
C       20.59874816      -7.86455961      12.23338406       0.25922190      -0.34881828      -0.14850060       0.12285629       0.10221364      -0.01574280
O       21.52073419      -7.21727871      12.15218583      -0.28270885       0.10297362       0.18325970      -0.15104062      -0.09780641       0.00694414
C       21.76934858       0.29646606       8.81293269      -0.00466925      -0.05356645      -0.02360294      -0.16623814      -0.24735752       0.14369764
O       22.12560872       1.15590664       8.18034387       0.65385513      -0.12893738       0.00640071       0.10369080       0.25092948      -0.17986100
C       31.11763302       7.23231342      -1.37781287      -0.07707808       0.09736150      -0.33134337      -0.11212057      -0.50225307      -0.22697593
O       31.34923034       8.22909972      -0.91493891       0.26255139       0.00233482       0.14510070       0.11987452       0.50033687       0.24854968
C       18.63966737      11.12371232      15.35686700      -0.23023876       0.07425512      -0.06982249       0.56814667       0.26816470       0.51311211
O       19.42606205      11.50394901      16.08172344       0.06325634       0.06799863      -0.15787109      -0.54455799      -0.27253005      -0.51449251
C       16.12231720       1.25629399      12.60014980       0.02779828       0.31037051      -0.07295820      -0.03546057      -0.01300350       0.01067018
O       16.84358474       2.11218866      12.73980699       0.08483740       0.16858103       0.10116160       0.02407427       0.02575657      -0.00743609
C       14.87533141       1.76805543       7.99793835      -0.24287105      -0.20446325      -0.37522480      -1.02815770       0.06302707      -0.74468490
O       13.95569266       1.83224087       7.32880688      -0.01333635       0.60129536      -0.29076364       1.04571652      -0.06080573       0.74309312
C       27.50261694       4.88618029       6.36960417      -0.06904544      -0.14547625      -0.04222634      -0.52865440       0.09000254       0.22287457
O       28.52609667       4.75690559       5.92565062       0.19251780       0.16129074      -0.04372190       0.54404941      -0.07147339      -0.21769880
C       25.67832106       2.17645705       0.41032272      -0.51562388      -0.08760075      -0.29157624      -0.28732525       0.07559800      -0.01834890
O       26.76383833       1.88337514       0.46469446       0.05066979      -0.31099916       0.16632145       0.24651737      -0.01314194       0.01014788
C       22.08929736      -6.83254843       2.14794792      -0.07312432       0.26744021      -0.13649427       0.06187619       0.13343767      -0.52384448
O       22.20495813      -6.58860003       1.04814470      -0.21257027       0.40758268       0.03181150      -0.05732398      -0.12276966       0.52996176
C       28.10517723       8.79974215       1.00331505       0.32930985       0.49650040       0.08960459       0.45459833      -0.20875530       0.59447417
O       27.46974731       9.11063844       0.13275855      -0.16666243      -0.27189834      -0.16394424      -0.43799240       0.23644742      -0.57692123
C       25.36872569       0.49668470      11.82025190      -0.07310529      -0.26695548      -0.17394544       0.03054734       0.02134557       0.06803230
O       25.02302417       0.77003695      10.78313394      -0.34016099      -0.04997222      -0.05932951      -0.00733990       0.03168269      -0.10774511
C       25.76845736      -0.85871392       2.20132858      -0.46294073      -0.07298531      -0.38213531       0.01011058       0.04418578      -0.06906360
O       25.18285791      -0.95572697       3.15915247       0.35787786      -0.44099654       0.12214603      -0.02241161      -0.03281905       0.11026747
C       41.98522828       5.13803645       0.06520184      -0.33279565      -0.02350557       0.26536596       0.14793254       0.32339537      -0.42691926
O       41.67273556       4.48408077       0.92405734      -0.13682570       0.13953615      -0.39765679      -0.16786974      -0.31767251       0.43557317
C       40.76444024      -1.30169420      10.65435710      -0.04315938      -0.12829146       0.28137508       0.10983604       0.26989772      -0.08522683
O       41.19472004      -0.30137687      10.34963419      -0.42050513       0.22662328       0.01490285      -0.12326871      -0.26183960       0.09997494
C       32.46405101      -3.29585642      12.27594911      -0.02186351       0.02547967      -0.19226416      -0.02370820       0.07025283      -0.03199678
O       32.10018706      -2.23634092      12.13662331       0.00100319      -0.41564628      -0.40673054      -0.01668308      -0.13308781      -0.00518781
C       33.51292159      -3.58243855       8.01067760      -0.06487282      -0.32333188      -0.05862019       0.04421411      -0.04376679      -0.19130582
O       33.11535313      -3.46680920       9.05711083       0.05862416      -0.53509424       0.50606307      -0.09518091       0.00039775       0.22014728
C       39.01687495       0.26759092       4.10562150      -0.22810351       0.38580626      -0.07089027       0.19190385       0.23469339      -0.35557772
O       38.57775739      -0.26867127       4.99067924       0.23040689      -0.17810992       0.01725117      -0.19596033      -0.24295952       0.37884871
C       42.17465023       6.44872200       4.34299270      -0.36115587       0.23712143      -0.07090719       0.58036384       0.54884926      -0.56397982
O       41.52542413       5.79589308       4.98177256       0.16312151      -0.23270633      -0.31102997      -0.57458024      -0.57236823       0.53741367
C       34.13524278      16.51539584      -0.91221724       0.08110953       0.08198244      -0.05123079      -0.00500583       0.47035199      -0.38314295
O       34.14419778      15.64565584      -0.20132152      -0.28898020      -0.29485165       0.36598207       0.00285296      -0.47601968       0.38017659
C       26.78153037      -6.27620537       8.33770765       0.08906736       0.24756837      -0.41934705       0.21133955       0.53937852       0.57560268
O       27.07689984      -5.54097061       9.15060036       0.06775191      -0.11965053       0.09042534      -0.21478684      -0.51371721      -0.57697222
C       31.52181411      -0.18525583       1.92826713       0.01989093       0.64010675       0.21212051      -0.14920084      -0.07399055      -0.14013501
O       32.22388569       0.23623642       2.70157822       0.44216077       0.46999411      -0.20365251       0.14579995       0.07396869       0.18064239
C       37.32839267       0.39893489       9.22841817      -0.09546869       0.13792604       0.01968751      -0.07168544      -0.56224891      -0.22448223
O       37.45778519       1.42584522       9.66440030      -0.57553718       0.18036161       0.21118092       0.11238461       0.56765964       0.24433008
C       38.93976963      10.40685622       6.15749643      -0.05223331      -0.43601957       0.19087049       0.49497438       0.45779332       0.00458530
O       39.77236680      11.17626267       6.16204596       0.11644572      -0.00394241       0.09871042      -0.50719604      -0.47002217       0.01753141
C       40.66928309      -0.10737512      14.31147882      -0.03891558       0.37640296      -0.09566284       0.99920595       0.40906367      -0.05145058
O       39.63451117      -0.53232113      14.35111292       0.28198448       0.39664358      -0.11061818      -1.00678122      -0.42115245       0.04483414
C       35.77782988       8.95598577       0.36444213       0.41739844       0.35055186      -0.21235366      -0.04820642      -0.16471562       0.09029774
O       36.22126373       9.91268249      -0.02965568      -0.39899312      -0.25254769       0.02006548       0.08742025       0.23349944      -0.08813141
C       29.56762929      -4.56041332       6.40456075      -0.31922578      -0.46264727      -0.17445939       0.02027558       0.18095710       0.26230929
O       29.43731378      -5.22167281       5.50410929       0.16418419       0.18660919      -0.05574171      -0.03451588      -0.24563269      -0.29402278
C       35.72683605       8.04857860      -4.01489837      -0.18767783      -0.34951567      -0.00693211      -0.69575142      -0.47043334       0.01109051
O       34.79198142       7.40544118      -3.97963384      -0.23939262      -0.09402519      -0.39680073       0.67402656       0.46417673       0.00554046
C       27.36594387       0.94090412      -3.55092814      -0.00427107       0.30342151      -0.02551195       0.00467774      -0.17715358      -0.04963396