80
Properties=species:S:1:pos:R:3:forces:R:3 Energy=0.0 kcal/mol=T energy=-2.0980315222847636 pbc="F F F"
C        0.25157028       0.49624036       1.15614032      -0.00002515      -0.00003145      -0.00001529
O       -0.28840274       0.33698877       2.13401541       0.00000957       0.00004587       0.00000711
C       -0.19270790      -3.83765863       1.87222096       0.00006373       0.00002958       0.00000660
O       -0.75968730      -2.91138667       1.56665530      -0.00008460      -0.00001598      -0.00000745
C       -1.16016328      -1.04516665       5.40959409       0.00000384       0.00000383       0.00001938
O       -0.91579836      -1.83567820       4.64345571       0.00002206       0.00003058       0.00000402
C        1.01846442      -4.87390031       5.26150185       0.00004220      -0.00008459      -0.00000202
O       -0.09207938      -4.85588319       5.45964154      -0.00002761       0.00007992       0.00002019
C        2.45360595      -1.57043460       3.62803408      -0.00002031      -0.00000759       0.00001582
O        2.31669414      -1.26287180       4.70486341       0.00000656       0.00001323      -0.00002466
C       -0.50369287       8.32615256       2.86476637      -0.00007586      -0.00005483      -0.00000068
O       -1.54448372       7.89278493       2.90610908       0.00006894       0.00004255      -0.00000352
C       -0.29425600       4.85051346       1.40532850      -0.00002326      -0.00003029      -0.00000288
O       -0.10911364       3.92537775       2.02393232       0.00003128       0.00002027       0.00001210
C       -0.32005837       4.96874504       5.91271958      -0.00001937       0.00001584      -0.00005845
O       -0.48265657       5.44248289       4.90186786       0.00002123       0.00001064       0.00003411
C        2.37819029       2.96377374       4.11230687       0.00000285      -0.00000697      -0.00002112
O        2.11625264       1.92459336       3.76115329      -0.00000826       0.00002129       0.00002368
C        2.67496303       6.73475209       4.27326470      -0.00001680       0.00000901       0.00003264
O        2.43026726       6.33271384       3.24814887       0.00001542      -0.00000911      -0.00004226
C       -2.99517511       2.55210030       0.50024533      -0.00002414       0.00000493       0.00003981
O       -4.05266704       2.68306631       0.87031043       0.00001342      -0.00000343      -0.00004327
C       -7.03737089      -1.94602846       2.41652689      -0.00001454      -0.00001412       0.00004323
O       -7.98420926      -1.45910392       2.78873080       0.00002017      -0.00000229       0.00000343
C       -5.99436175       1.53898276       3.52387942      -0.00002292       0.00002868      -0.00001336
O       -5.85290198       2.63603591       3.74406885       0.00006597      -0.00001721      -0.00001105
C       -3.27373404      -4.56275586       3.88549988       0.00000255       0.00000846      -0.00004255
O       -3.37531534      -3.98333828       4.84810070       0.00001012       0.00002700       0.00002693
C       -3.59773810      -0.78155985       1.75327656       0.00002289       0.00001388      -0.00003532
O       -3.52455125      -1.31774792       2.74300563      -0.00003742      -0.00000020       0.00001545
C       -5.85428673       8.91235424       3.38009973      -0.00000804       0.00000259      -0.00003517
O       -5.94244504       8.45333862       4.40701633       0.00001079      -0.00001181      -0.00000678
C       -4.12681933       5.68469494       3.38865160       0.00000803      -0.00005127      -0.00002851
O       -3.28978534       4.96096673       3.17034792      -0.00001252       0.00004667       0.00003567
C       -7.53497335       5.37319056       5.16975136       0.00003531      -0.00002893      -0.00000461
O       -6.63905956       5.21569795       5.83700172      -0.00002140       0.00004411       0.00002191
C       -2.49485433       1.88143785       4.14964071       0.00002407      -0.00006149      -0.00000227
O       -1.53040472       2.24794391       4.60472301      -0.00004726       0.00005696       0.00001298
C       -2.87167972       8.61655169       6.03404977       0.00003747      -0.00002380      -0.00001914
O       -2.77820626       7.49663684       6.13237942      -0.00008640       0.00001216       0.00001062
C        0.33131736       1.85793119       7.65223195      -0.00006510      -0.00000308       0.00004257
O        1.07124148       1.65286303       6.82641796       0.00008408      -0.00001451      -0.00002702
C        0.84358391      -1.60167414       8.40010867      -0.00006521       0.00002862      -0.00000136
O        1.06652112      -2.40374650       7.63914202       0.00006665      -0.00002794       0.00001857
C        0.14390540       0.60931235      11.21497651      -0.00005185      -0.00006122      -0.00003080
O       -0.85547327       1.00539718      10.87297199       0.00003070       0.00004042       0.00002989
C        3.45010275      -1.83106468      10.79004193       0.00003647      -0.00001630      -0.00003165
O        3.73692601      -0.74117333      10.74118947      -0.00003482       0.00000833       0.00001630
C        4.32028139       0.67484017       6.81426772      -0.00002012      -0.00000925      -0.00003595
O        3.81287849      -0.07792134       7.48400076       0.00002343       0.00000167       0.00006429
C        0.47794848       7.92714342       7.52263193       0.00001969      -0.00004399       0.00000305
O        0.91837114       7.48501514       8.46213361      -0.00003045      -0.00001214       0.00000641
C        3.80758114       4.63177666       7.22421376      -0.00001493      -0.00006534       0.00000043
O        2.69097018       4.64795596       7.38512180       0.00000849       0.00004094       0.00000474
C        0.01323760       4.36948268      10.06484006      -0.00001637       0.00001026       0.00000152
O       -0.76194258       4.72944785       9.32919778       0.00003437      -0.00002814      -0.00000307
C        3.28129586       2.62864264      10.81865841       0.00007055      -0.00003352       0.00000859
O        3.02663286       2.33195384       9.76029144      -0.00006508       0.00004628       0.00001482
C        2.82206061       6.61215274      11.27168106       0.00002702      -0.00000707      -0.00002648
O        3.18044972       6.02659753      10.37637333      -0.00002711       0.00001159       0.00000157
C       -6.51131279       1.90308293       7.11946620      -0.00003427      -0.00005338       0.00000022
O       -6.62703568       2.23490798       8.19106142       0.00006027       0.00004182      -0.00000771
C       -5.67398843      -1.53275113       5.72966984       0.00001020      -0.00002530      -0.00001579
O       -4.68805204      -1.01073390       5.89624742       0.00000540       0.00001966      -0.00001287
C       -5.46074281      -1.18284299      10.30971501      -0.00000030       0.00000084      -0.00001129
O       -5.62361168      -0.70777913       9.29936598       0.00001567      -0.00000438      -0.00000479
C       -2.34217759      -3.35098961       8.10367837       0.00003212      -0.00004570       0.00000195
O       -3.44222704      -3.10264125       8.12535714      -0.00003468       0.00002998       0.00001151
C       -2.95476804       1.08575184       7.80880830      -0.00001254       0.00000197      -0.00003149
O       -2.65982756       0.10342625       8.27757290      -0.00000850      -0.00001461      -0.00000026
C       -6.80253640       8.27417619       7.73570387       0.00001979       0.00001170       0.00001896
O       -5.71195973       7.98567556       7.74735541      -0.00003047      -0.00000177       0.00000977
C       -3.81965561       4.49047736       7.55618106      -0.00000658      -0.00004941      -0.00000873
O       -3.53234236       4.29118895       6.48388680       0.00000965       0.00008113       0.00001855
C       -6.64376761       4.93212045      10.43977347       0.00000946      -0.00000275       0.00003395
O       -6.79921842       5.28459686       9.37943323      -0.00001277       0.00002724      -0.00000427
C       -3.97833486       2.52882090      10.83729015       0.00003934      -0.00000650      -0.00002816
O       -3.27540918       3.39346122      11.01224199      -0.00003218       0.00001640       0.00000622
C       -2.81312036       7.37090597       9.71821158       0.00002760      -0.00001736       0.00002886
O       -3.72248216       6.84177008      10.12459757      -0.00003022       0.00001216      -0.00002640
