6
Energy = 0.00 kcal/mol
C    -0.069392 -0.118963 -0.029724
O    0.489936 -0.825749 -0.683343
N    -2.020655 2.134076 2.233388
H    -2.984231 1.892738 2.076941
H    -1.460564 1.600437 1.589922
H    -1.779529 1.844844 3.165768

