120
Properties=species:S:1:pos:R:3 Energy=0.0 kcal/mol=T pbc="F F F"
C       -1.76315100      -3.75655800       1.49466100
O       -2.29305200      -3.06097500       2.20637700
C       -4.37955300       0.81642300       4.23703200
O       -4.65314100      -0.07983300       4.86143300
C       -1.70616400      -0.76934100       6.74016200
O       -1.02784400      -1.66198800       6.81773200
C        1.92904000      -3.52749100       2.43095100
O        2.42505500      -3.24246600       1.45995500
C        4.82612700       3.27089100       1.70218500
O        5.89346900       2.93005100       1.79084300
C        3.18050600      -1.90198600      -0.95653300
O        3.89950900      -1.52955900      -1.73990700
C        1.48617400       2.10663000       6.14932700
O        1.24291700       1.05028800       5.83144000
C       -1.99433800       0.91764000      -1.55938500
O       -1.49411500       1.41565000      -2.44104500
C       -7.37164600      -0.52755200      -0.40532600
O       -7.36724400       0.56336900      -0.71655000
C        2.29166100      -1.88050700       5.86667500
O        2.62223800      -2.93186100       5.61376000
C        3.42956900      -5.99726500       4.31188300
O        2.43371400      -6.45672100       4.58316900
C       -2.62843000      -2.68323900      -2.15605100
O       -2.33306700      -2.09631800      -1.23784600
C        5.34407000       1.74563600       4.64838100
O        4.64813200       0.96848700       5.07587000
C        2.63047400       5.53937400      -0.14120300
O        3.61775900       5.95883400       0.22379900
C        0.07943400      -4.41957100      -4.16279300
O       -0.81579200      -5.02513400      -3.84228300
C        3.50609000       5.73082500       4.03273800
O        2.63169400       5.38995000       4.66728500
C        0.14851300      -0.97093900       0.38026000
O        0.36388500       0.12617100       0.51930700
C        4.37388500       4.51253100      -3.15146100
O        5.04994600       3.71902400      -3.58996200
C        4.27769500      -5.63236100       0.64127100
O        3.30906400      -6.21126300       0.63215900
C        0.52618100      -0.77028200      -3.25721100
O        0.80186500      -1.79757400      -2.87199400
C        3.84111500       0.68773900      -4.04033600
O        2.91966300       1.29338100      -4.27873300
C       -0.41516600      -0.29232000       3.75823500
O        0.07262900      -1.26657400       3.46850300
C       -0.88341200       6.03470500       2.77176100
O       -1.48364500       5.15523200       3.15324900
C       -6.10922100      -3.58211600      -2.21068600
O       -6.79223400      -2.78710500      -2.63413000
C       -3.37125800       2.26951000      -5.14128300
O       -3.83065000       3.25023800      -5.46078300
C        1.02241100      -4.84601400      -1.03339600
O        0.34263500      -4.01840800      -0.68296700
C        0.11419300       3.44559700      -3.94268700
O        1.15766800       3.51944900      -3.53918400
C       -3.99350400      -5.28739500      -4.57841200
O       -4.08889200      -4.16947000      -4.45022000
C        6.14442800       1.61523500      -1.31109200
O        6.91006500       0.78549600      -1.30356500
C        4.41170500      -4.67002000      -2.85302300
O        3.49119400      -5.30340900      -2.67042600
C       -5.14427400      -4.26736500       1.29535100
O       -5.65826700      -3.31224800       0.98053400
C       -3.74551600      -3.17243400       4.77010500
O       -3.99170400      -3.82500700       5.65537000
C       -2.06333700      -6.31020400      -0.99168600
O       -3.05125500      -5.76829200      -0.94802800
C        1.01307700       2.84535600       2.32170300
O        2.07382500       3.15694500       2.54120300
C        2.84780300      -2.07482500      -6.01123500
O        1.74803900      -2.24039600      -6.18387800
C       -1.82177000      -1.90884000      -5.99988200
O       -1.82723300      -0.93580400      -5.42777100
C       -0.23797900      -4.45280200       5.48133000
O       -0.28972300      -4.67772100       4.37573300
C        7.63016100       0.19353000       1.86788200
O        7.35630000      -0.46797900       2.73993700
C        0.60318700       1.21235200      -6.58891800
O       -0.29582700       1.73559900      -7.02819500
C        3.07700500       0.09349700       2.24386900
O        3.93989000      -0.38521700       1.69751900
C        6.40672300      -2.37247100       0.02178900
O        6.49034000      -3.38820200      -0.46021700
C       -0.91107800       4.64078100      -0.81524000
O       -0.20472200       3.85402100      -0.42171200
C        0.54584700      -6.87052000       2.37689200
O       -0.40922300      -6.55600400       1.86810500
C        0.73779700       6.89990900      -3.89949500
O        1.19390700       6.84305200      -2.87202200
C       -1.32469000       8.32156200      -0.94349000
O       -0.98381700       7.73528200      -0.04057500
C        6.68914400      -1.32594100      -3.75626900
O        5.75912600      -1.79321400      -4.19202300
C       -6.27687400       2.52763800       1.74195700
O       -6.14737900       3.29346600       2.56381900
C       -4.55402700       5.83126100       1.06033700
O       -3.83715400       6.48738300       0.48366100
C       -3.74937100      -0.78049100       1.20196500
O       -4.15716200       0.22031800       0.88329500
C       -4.95193000       2.65604900      -1.59536300
O       -4.15713100       3.16732000      -0.97111700
C        2.05153700       1.98939700      -1.09973300
O        3.06875100       2.20741100      -0.66580200
C       -5.50596800      -0.42494300      -4.17889200
O       -4.65669100      -0.14154300      -3.49359600
C        2.57265800       3.92020500      -6.57663500
O        2.67530900       4.96685100      -6.15793200
C       -2.91943800      -6.59221800       3.84873900
O       -3.44520600      -6.42319200       2.86646800
C       -2.45910000       2.64350200       1.56254200
O       -2.15291500       1.81114500       2.26308600
C        5.46952500      -2.69460000       3.57689900
O        5.38380400      -3.63895200       2.96087700
C       -1.79803200       3.26987700       5.62066600
O       -1.68525200       2.17524600       5.39048000
C       -3.46272500       6.23945100      -3.22549200
O       -2.33994000       6.15769400      -3.15010200
C       -1.13975600       5.15411700      -7.12962700
O       -0.62908700       5.46534600      -6.17053600
C       -6.97951700      -1.63565300       3.62489900
O       -7.08259400      -0.76050000       2.91726600
