954
Properties=species:S:1:pos:R:3:momenta:R:3:forces:R:3 generated=T by=T VMD=T energy=-5207.567324366794 pbc="F F F"
C       -1.39955577      11.85336159     -11.58867756      -0.05043897      -0.18850039       0.16569150       0.06983499      -0.06221691       0.03973734
O       -0.42058777      11.30949127     -11.47382838      -0.04844015       0.03233915      -0.08041495      -0.08197781       0.04251648      -0.01617560
C        1.71530054     -19.31948821      -2.55787050       0.00000000       0.00000000       0.00000000       0.01225017       0.00226174      -0.00395749
O        1.04368308     -19.84941490      -1.82785312       0.00000000       0.00000000       0.00000000      -0.00943543      -0.00541207       0.00738982
C        9.58388570       1.02741564     -16.96884590       0.00000000       0.00000000       0.00000000       0.00068717       0.00622900      -0.00688048
O        8.52447485       0.83193272     -17.29514811       0.00000000       0.00000000       0.00000000       0.01061162      -0.00347753      -0.00447882
C      -19.86755971       2.58654189      -6.43047857       0.00000000       0.00000000       0.00000000       0.00099086      -0.02662476       0.02442793
O      -20.24666045       2.74609672      -7.47755883       0.00000000       0.00000000       0.00000000      -0.01137424      -0.00760787      -0.02923548
C      -17.49745712      -2.30869796      -3.87219471       0.00000000       0.00000000       0.00000000       0.01898782      -0.01646370      -0.00170178
O      -17.00968090      -2.84635609      -3.01308558       0.00000000       0.00000000       0.00000000       0.01306181      -0.00855160      -0.00891949
C        6.07067041      20.66951920      -3.45253276       0.00000000       0.00000000       0.00000000       0.01353331       0.00468886      -0.00322889
O        6.49804451      21.47697658      -2.79673748       0.00000000       0.00000000       0.00000000      -0.00566636      -0.00080578      -0.00178158
C        8.50635927       8.46718184      -9.01217431       0.14496952      -0.04424682      -0.05126696      -0.14926584      -0.00378782       0.18766634
O        7.78232616       8.40380408      -8.14994957      -0.01334538       0.07799069      -0.02610353       0.17696443       0.03122926      -0.18210891
C       -2.20663135      11.91669433      -2.79145708      -0.07030690      -0.12218358       0.18693441      -0.03594515       0.02364987      -0.22004822
O       -2.13604910      11.89092000      -1.67133398      -0.11399743       0.15456635      -0.14626885       0.01988893       0.00376391       0.21659055
C       -4.87492856       2.49575772     -18.47832180      -0.02261580      -0.14320096       0.06543287      -0.15459627      -0.03466179      -0.17287594
O       -5.51628322       2.31493704     -19.38659995       0.09186865       0.17340994       0.11443774       0.12528737       0.05961563       0.19191970
C      -18.78358326      -7.21797500      -7.44561100       0.00000000       0.00000000       0.00000000       0.00768476       0.00124132      -0.00389702
O      -18.37037640      -6.43736661      -8.14340243       0.00000000       0.00000000       0.00000000      -0.00199296      -0.00177450       0.00270594
C      -18.07801402       8.31946771      -2.85921656       0.00000000       0.00000000       0.00000000       0.00130735      -0.00798002      -0.01771095
O      -17.71435267       8.59974965      -3.88726437       0.00000000       0.00000000       0.00000000       0.00392089       0.00993928       0.00304831
C       -0.61260168      -6.73429119     -19.06306429       0.00000000       0.00000000       0.00000000       0.01830885       0.01286220       0.01731350
O       -1.23841199      -6.51514734     -19.97131669       0.00000000       0.00000000       0.00000000      -0.00271968       0.00311136      -0.00371927
C        1.68789486      -8.43943536      -2.28520803       0.05156351       0.12501959      -0.09141122       0.15951324       0.09003026       0.02195959
O        2.49650635      -7.66454705      -2.16424091      -0.24333080       0.25821203      -0.15550784      -0.10964154      -0.13056824      -0.02656165
C        7.83500295      -6.97952993      -5.58586945       0.13246551      -0.07708796       0.03568598       0.46802321       0.25958616       0.05561872
O        6.84020360      -7.47742220      -5.73009131      -0.29856292      -0.11785409      -0.06996562      -0.51197356      -0.22418568      -0.06230263
C       10.30342186      -4.89710576      -6.89057211       0.13317307       0.00161091       0.01398261      -0.01800475      -0.08539719       0.06664100
O       10.55404081      -4.24879533      -7.77580722       0.02467041       0.06904798       0.28999641      -0.00171256       0.04776162      -0.07132026
C       -1.69633166       0.02432772      -8.13850963      -0.08645000      -0.12376164       0.01465979      -0.03967026      -0.04797743      -0.05949705
O       -1.52229293       0.97430725      -7.56144874       0.12798010      -0.07405791      -0.04973689       0.02176169       0.08731003      -0.01597109
C       -4.51101720      12.75441643     -10.47008357      -0.00298219      -0.06086797      -0.04205211       0.01422439       0.00690959       0.00830029
O       -4.95366535      11.95502430     -11.12726221      -0.03212463      -0.09745865       0.01626530      -0.00769416      -0.01129267       0.01797085
C       -0.76876330       3.96311237      -2.91680551       0.03977722      -0.05120218      -0.16224706      -0.04144068      -0.03750937      -0.04314366
O       -0.36325873       4.87463835      -2.39700497      -0.10675687       0.20672901       0.01066436       0.01848774       0.05339705       0.01856802
C       -1.73321568       8.67386875      -3.15924248      -0.09681053      -0.07187198       0.02329525       0.09250835       0.27933323      -0.01650222
O       -2.13916260       7.62724226      -3.19673917       0.06923805       0.08689842      -0.15879404      -0.11455527      -0.30022421       0.02423664
C      -10.39752802     -17.18640683      -4.99888723       0.00000000       0.00000000       0.00000000       0.00478492       0.00963750       0.01565187
O      -10.01974821     -17.79588434      -4.13189469       0.00000000       0.00000000       0.00000000      -0.01924166      -0.00183267      -0.02277893
C      -17.48692222       7.62764212      -6.99836053       0.00000000       0.00000000       0.00000000       0.00858365       0.00452050      -0.00648148
O      -18.57866853       7.71258008      -7.25394775       0.00000000       0.00000000       0.00000000      -0.00615791       0.00449911      -0.00592122
C        7.23799508     -15.83324107      -9.65459721       0.00000000       0.00000000       0.00000000      -0.02298200       0.03585906       0.00094192
O        7.06031918     -16.93234446      -9.49352191       0.00000000       0.00000000       0.00000000       0.00393508       0.00061119      -0.00412199
C       17.36821994       1.46045233      -8.37443205       0.11886367      -0.01503137       0.04100127       0.11345094      -0.20310710      -0.33096179
O       17.64428889       0.89624132      -9.31281813       0.07540823       0.00089737      -0.10772529      -0.09871637       0.23533736       0.36154744
C       10.03290125      12.62870498     -12.37818863       0.00000000       0.00000000       0.00000000       0.02906984       0.01339934       0.00884370
O       10.98056112      13.01433307     -12.84704453       0.00000000       0.00000000       0.00000000      -0.01138804       0.00118130       0.00623564
C       -5.82680154      -3.52555976     -10.29431100       0.10411980       0.02239912      -0.07792594      -0.01061721      -0.00052907       0.01909469
O       -5.66735487      -3.09965480     -11.32323526      -0.01198173      -0.06836560       0.00542351       0.00459732       0.00650187      -0.02513562
C       -3.18111675      -5.20608081      -4.72667617       0.05902981      -0.01465513      -0.00078069      -0.05711549      -0.08931796      -0.15426800
O       -3.05011257      -4.56493026      -3.81300868      -0.06809265       0.02774118       0.21455496       0.03364412       0.11180634       0.12270436
C      -10.61597144     -12.37921482      -9.58705861       0.00000000       0.00000000       0.00000000      -0.00485021      -0.00532636       0.00109826
O      -11.04182486     -12.95107134      -8.71639852       0.00000000       0.00000000       0.00000000       0.00142751       0.00537283      -0.02302017
C        4.55073475      -0.29175529     -18.54757530      -0.03657490       0.04030949      -0.07787612      -0.14977711       0.02855357      -0.07181963
O        5.59237925      -0.52103531     -18.19034044      -0.18786324       0.04558674      -0.13376182       0.16472779      -0.05118428       0.05745025
C       -3.68733575      -2.92338459      -7.78324571       0.12568146       0.05719468       0.12237928      -0.01386878      -0.01414649      -0.00189999
O       -4.33696658      -2.84223917      -6.86745609      -0.07822476       0.06745268       0.14758317       0.00253458      -0.00749984      -0.02955078
C       -7.23945925      10.20153432      -5.09019886       0.07064654      -0.00723644      -0.07451102       0.01078912      -0.00407498      -0.01513088
O       -8.01882519       9.39696746      -5.19309223       0.08418908      -0.05294702       0.02764678       0.02308249       0.01607031       0.03746884
C       17.83594760      -2.15131085      -8.66528278       0.00000000       0.00000000       0.00000000       0.01729878       0.00227816       0.05010664
O       16.92388378      -2.44115920      -9.25836934       0.00000000       0.00000000       0.00000000       0.01718973      -0.03532267      -0.02575773
C       -7.35542997      -8.57118973     -13.06127872      -0.01613055       0.10114022       0.04453513       0.06492257      -0.26476774      -0.11377647
O       -7.12478898      -9.56846031     -13.53393426      -0.05123700       0.07825464      -0.01661491      -0.05861543       0.26727942       0.12539622
C      -14.97463542      -4.30364397     -12.25138804      -0.01963391       0.15455421       0.06489379      -0.29259679       0.02920401      -0.46107337
O      -14.37064729      -4.37699716     -11.30907408       0.28551502       0.15798525       0.04828034       0.30240065      -0.01523640       0.42527974
C       -2.75300511       0.40850820     -13.95347898      -0.08748357       0.05504928      -0.00292043       0.17198637       0.02651145       0.09306233
O       -1.72078783       0.68157835     -13.59263905      -0.01346465       0.05683714      -0.09669417      -0.17850108      -0.02928800      -0.06054352
C        1.58536379      13.77548231      -3.66823972       0.12751252       0.02899452      -0.00894692      -0.21296132      -0.04897182       0.12243951
O        0.60029567      13.61227103      -3.14611475       0.08830222       0.13744184      -0.03636839       0.22239725       0.02894807      -0.11004488
C       -0.99234666     -14.29014444     -13.97487953       0.00000000       0.00000000       0.00000000       0.01511683       0.01131250      -0.00314881
O       -0.52142220     -13.35653344     -13.55598852       0.00000000       0.00000000       0.00000000      -0.01706360      -0.02779808       0.00713540
C       13.74259023      -9.76474514      -9.08556841       0.00000000       0.00000000       0.00000000      -0.02246740       0.00905332      -0.02203680
O       13.55438485      -9.00602758      -9.89516945       0.00000000       0.00000000       0.00000000      -0.00319195      -0.01092482       0.00209227
C        0.88525481     -12.99529078     -10.67771942      -0.07372331      -0.13285312       0.02974587      -0.33997202      -0.11484891       0.13882373
O       -0.07260385     -13.41260786     -10.25217252       0.06617871      -0.02570014       0.03754252       0.29897910       0.12429012      -0.15215123
C       -9.13625756      -9.93463671     -15.97950635       0.00000000       0.00000000       0.00000000      -0.01254619      -0.01566933       0.01024544
O       -8.53025486      -9.32436745     -16.70546358       0.00000000       0.00000000       0.00000000      -0.01060271      -0.03516777      -0.02334975
C       -3.64011417     -17.46713641      -4.66127556      -0.08288190      -0.10264328       0.08303417      -0.07522254       0.11425196       0.19784795
O       -4.04209078     -16.93290359      -3.75405759      -0.02581150      -0.26628227       0.03705195       0.07356987      -0.10934985      -0.18825540
C      -10.13114179       9.54388001      -7.37076458      -0.14693564       0.09682723      -0.01842973       0.01037707       0.18911074      -0.11026762
O      -10.00670196      10.55617272      -7.85207247       0.13383255       0.15382096      -0.03692768      -0.02260833      -0.17565137       0.12073884
C       15.90235859       4.99518575     -10.20065910       0.00000000       0.00000000       0.00000000      -0.00505548      -0.02371281       0.03340322
O       16.54299831       4.16484502      -9.79247265       0.00000000       0.00000000       0.00000000      -0.01575595       0.03550999      -0.01412668
C        2.50573161       4.58960428      -3.90130406      -0.02720878      -0.10432782      -0.24187443      -0.07280807      -0.00784225      -0.03426766
O        3.27100735       5.02611540      -3.20335866      -0.07887147       0.23962453       0.07333157       0.06560742       0.03677189       0.05285525
C       -5.11727683      -8.33671939      -4.65662358      -0.06502273      -0.05083983       0.10241276       0.02339582      -0.11356777      -0.12062604
O       -5.29438812      -7.48546219      -3.94404702       0.31783414       0.30634598       0.08394289      -0.02530649       0.11736972       0.10092140
C       11.82502341      -6.50940670      -9.45198225      -0.11255030      -0.02644564      -0.02361118      -0.05965442      -0.00313051      -0.09274360
O       11.16227630      -6.60210113     -10.35710068       0.07793033      -0.20125079       0.14398879       0.07390348       0.00990642       0.08274124
C        4.95187530       2.93035105     -11.18781695       0.05410302       0.00276940       0.12354593       0.12577592       0.01758499       0.04426098
O        3.95386069       2.84451772     -11.69973486       0.25688712       0.05509179      -0.09778586      -0.07845437      -0.02559268      -0.07588522
C       13.99748388      12.57906013      -2.99185712       0.00000000       0.00000000       0.00000000      -0.01093767       0.01320107      -0.00335556
O       13.10434379      12.84049125      -2.35955872       0.00000000       0.00000000       0.00000000       0.00835214       0.02805004      -0.00129149
C       -5.58557360      10.08829804      -8.33022381       0.05615082       0.04427363      -0.05953478       0.24381249       0.24556930      -0.12531106
O       -6.25034177       9.29756188      -7.88809707       0.00796380      -0.14667685       0.08809613      -0.19471422      -0.23977910       0.12885660
C       13.87940846       1.28841731      -7.00735770       0.02472088      -0.00345274      -0.04905618       0.09838382       0.27584016      -0.09395540
O       14.32644738       2.20850075      -7.48347808      -0.15489602      -0.15590176       0.02470056      -0.09975599      -0.21946998       0.12072766
C       16.79703144       3.68590441      -5.69237506       0.00000000       0.00000000       0.00000000       0.00595816      -0.00331099      -0.04580526
O       16.90914524       4.52813175      -6.43049866       0.00000000       0.00000000       0.00000000       0.00170157       0.00307909       0.01354835
C        6.99222199     -10.60847822      -5.04004141       0.06070076       0.14022792       0.03612038      -0.01064232       0.00102219      -0.05774841
O        7.48838924     -10.53727914      -4.03307213      -0.28307929      -0.05258275       0.06745024       0.02731031       0.01209876       0.04709709
C       10.02010686       6.94262784      -4.02468024       0.08511310      -0.07493109      -0.07556584      -0.00833015      -0.02338131       0.09088260
O       10.16225776       7.17356083      -5.11677005       0.18503143      -0.02307843       0.06832371       0.03668324       0.02375554      -0.10455913
C       -9.06183661       2.99315741     -14.71566996      -0.17045991      -0.16160752       0.12919616       0.32673165       0.48273242      -0.21284233
O       -9.67197178       2.14550183     -14.31063538      -0.24844991       0.15862308      -0.16021251      -0.33399564      -0.46790352       0.23507610
C        2.31971605      14.13512443      -7.16198991      -0.02842645       0.21450908      -0.02088694       0.54983640       0.49575305      -0.05053480
O        1.47594165      13.40784786      -7.04619624       0.09642123       0.14952449       0.08507305      -0.56325877      -0.48004556       0.07118879
C       -1.65673093      -2.17544639     -10.55092320       0.03129969       0.01211314      -0.20437073      -0.23900670       0.17652985      -0.12695694
O       -2.49872753      -1.57566846     -11.00345219       0.17671302      -0.11566018      -0.26345618       0.24482174      -0.16927433       0.15488413
C        4.92473841     -19.50105893      -6.68184486       0.00000000       0.00000000       0.00000000      -0.00021730       0.00470541       0.00003184
O        4.09193523     -18.93196049      -7.18229688       0.00000000       0.00000000       0.00000000      -0.01021883      -0.00031406       0.00532700
C       16.19405382       7.86391257      -6.91688022       0.00000000       0.00000000       0.00000000       0.01825902       0.02142761       0.02932211
O       15.96127210       7.58645092      -7.98213456       0.00000000       0.00000000       0.00000000       0.00041049      -0.00478048      -0.03326360
C       12.07442673      -8.78360388     -12.68223789       0.00000000       0.00000000       0.00000000      -0.03680822      -0.03996698      -0.02370770
O       12.08410217      -9.90471430     -12.78153666       0.00000000       0.00000000       0.00000000       0.02522713       0.03409012      -0.00254591
C      -11.16785286      13.00283281      -1.83904575       0.06498849      -0.05337409       0.11592459       0.23791638       0.03216196      -0.00842043
O      -12.25478011      12.72995074      -1.75876790      -0.09497736      -0.03338378      -0.10297779      -0.22794296      -0.04948092       0.00150753
C        3.07073056      -9.25416897     -15.62400759       0.17648629      -0.01614531      -0.08669127       0.02615065      -0.05186361      -0.03142840
O        3.85607918      -9.93344990     -16.05997416      -0.26664627      -0.07491118       0.09229810      -0.03024889       0.03691274       0.01585477
C       16.54179889      -1.76154487     -13.05908706       0.00000000       0.00000000       0.00000000       0.00174360       0.04621704       0.04543839
O       17.08784437      -1.11758087     -12.31438441       0.00000000       0.00000000       0.00000000      -0.00093972      -0.04723945      -0.04575340
C        5.55579731     -12.61023840     -15.71570467       0.00000000       0.00000000       0.00000000      -0.00859826      -0.00031549       0.01250438
O        6.31465147     -12.01264054     -15.13807458       0.00000000       0.00000000       0.00000000       0.01400029       0.00730566      -0.00658613
C      -14.66577737       0.30841080      -3.28127153       0.10138482      -0.12498034       0.09598241       0.01079984       0.03938008      -0.05464120
O      -14.54382293      -0.44046088      -2.45115308      -0.35934698       0.03231160       0.05350189       0.00677760      -0.03500522       0.04103741
C        2.65269365       7.73381626     -15.65139736       0.01596852       0.08099900       0.14854860       0.07916756      -0.17398076       0.22506738
O        2.32789295       8.44967877     -16.45425657      -0.13795236       0.08502389      -0.11509088      -0.11860564       0.18418758      -0.21527576
C       -8.66509921       1.52379681      -7.64316282       0.16037085      -0.09235400       0.05013025       0.14134942       0.23098861      -0.01883544
O       -9.22215764       0.54882833      -7.60390225      -0.05204528       0.10406949      -0.05701328      -0.16135810      -0.23954958       0.01041509
C       -8.12289204       6.44486204      -3.43235511       0.27485650       0.12928850       0.06844275      -0.01837970      -0.00005544      -0.01571298
O       -9.08426157       7.01714211      -3.31537151      -0.05895348      -0.08424224      -0.06025092       0.01084713      -0.00598157       0.01165060
C       16.90059947      -7.39133465      -8.49631003       0.00000000       0.00000000       0.00000000       0.00582878      -0.00276440      -0.01225560
O       16.53946483      -7.89828258      -9.43367734       0.00000000       0.00000000       0.00000000       0.00928439      -0.00050819       0.00691273
C        8.04762831      15.81394318      -3.47967323      -0.19278386      -0.07752220      -0.07613352      -0.05779585      -0.04576410       0.02241557
O        7.56336055      14.86708352      -3.11103739       0.10630632      -0.03914974      -0.03662447       0.03087026       0.04501001      -0.03157031
C       12.42231924      14.04284882      -6.70564942       0.02722322       0.03309719      -0.09254590      -0.01791843       0.07547493      -0.24486426
O       12.47544731      13.81437905      -5.60685934       0.04844154      -0.14602641      -0.06155270       0.02842592      -0.09701371       0.26384991
C        9.70588542       5.28866716      -8.17611590       0.14478506      -0.04524571       0.03099984       0.01398021      -0.01290927       0.00376522
O       10.23108070       4.67220906      -7.39405614      -0.12772468      -0.18261311       0.00487930      -0.00733177       0.01485729      -0.01732317
C       11.67251674       8.06711274      -7.71429681      -0.09250563      -0.10696375       0.02446490       0.35736948       0.12664710       0.17193943
O       12.63142805       8.41644316      -7.23051796      -0.06014850       0.01762637      -0.00502575      -0.38651350      -0.13593420      -0.17281842
C        6.07305136     -15.50932578     -12.85868321       0.00000000       0.00000000       0.00000000      -0.02876421       0.01705078       0.02356588
O        5.44142421     -15.07752715     -13.68402144       0.00000000       0.00000000       0.00000000       0.02022327      -0.02884992       0.01018922
C        0.97514925      -6.74978775     -16.14140837       0.06169284      -0.16220667      -0.13945020       0.01263322       0.03598669       0.00133096
O        1.50589497      -5.75746263     -16.10597903      -0.02803135      -0.01118454      -0.05965619      -0.02490977      -0.04058385       0.00955360
C        0.79053811       2.75077075     -13.90284749       0.02560320       0.13913245       0.09641456       0.17213874      -0.16942377      -0.29887798
O        1.28733781       2.33520657     -14.82631622      -0.01957517      -0.01342486      -0.27877509      -0.14802511       0.14341940       0.30116716
C        6.01565071      -2.09333664     -15.40385456      -0.06607156       0.24087611       0.11749797      -0.15521151      -0.03590523      -0.04644030
O        6.96838524      -1.70436390     -14.95247393      -0.00583680      -0.22440795       0.33947678       0.13199468       0.01574642       0.04855425
C      -19.71226412      -5.24349118      -4.80666759       0.00000000       0.00000000       0.00000000      -0.00534561       0.00701589       0.00786241
O      -20.17107299      -4.47703585      -4.12223703       0.00000000       0.00000000       0.00000000      -0.00188333      -0.00095508      -0.00908825
C       10.13650834     -10.73299902      -9.52293279       0.00741846       0.19080204       0.05288430      -0.02290882       0.04442874      -0.14734754
O        9.96675761     -10.35972464     -10.57199820      -0.03694486      -0.14736657      -0.01706534       0.01526271      -0.05145034       0.18022139
C        8.51236958     -12.62972670      -7.24562029       0.06946977      -0.13084759       0.11858033      -0.00506925      -0.07045307       0.00415010
O        8.59143379     -13.73306367      -7.45794366       0.04533903      -0.02147928       0.01933537      -0.00127443       0.06681822       0.04077920
C       -5.13299536      -0.26393408      -5.08685002       0.03606389       0.19712856       0.11257076      -0.20355201       0.12699986      -0.11876352
O       -6.01254108       0.15148670      -5.65791517      -0.14171060      -0.02401972      -0.06088098       0.21061084      -0.09903686       0.12660192
C       -7.80431381      -3.97740801     -13.67012904       0.01063513       0.18080178      -0.02777867       0.14243342      -0.17631203       0.07924490
O       -8.42292201      -3.09865606     -13.99930054       0.14783462       0.14717924       0.09439425      -0.11755375       0.18649650      -0.05083585
C        3.22815897       5.23538600     -13.84631981      -0.21121361      -0.04283286      -0.21661400       0.16552250      -0.14177072      -0.10936652
O        4.04523631       4.67854518     -14.38839375      -0.02662733      -0.00743188       0.04943958      -0.17181881       0.07746208       0.15539323
C        4.68657014      10.03180166     -10.81672538       0.11082287      -0.03841339       0.04692167      -0.02786700       0.01191116      -0.04563328
O        5.40808368       9.80399508      -9.98364332       0.13644351       0.16230783       0.06350109       0.02860334       0.01125354       0.02245970
C        3.65061208     -10.79007746     -10.07521428       0.00283035       0.03944166       0.00744975      -0.05280374       0.05002895       0.00162886
O        3.11840209      -9.88930708     -10.49204367      -0.04801436       0.15415522      -0.21082149       0.03960261      -0.04767327       0.03798363
C      -18.45674226      -8.85953730      -4.61688716       0.00000000       0.00000000       0.00000000      -0.00198066       0.00030114      -0.00974358
O      -19.14800622      -8.33819485      -3.89788885       0.00000000       0.00000000       0.00000000       0.01338799      -0.00742738       0.00371905
C       17.49289057      -4.97041545     -10.94981173       0.00000000       0.00000000       0.00000000      -0.00060927      -0.00309373      -0.02265656
O       17.01861243      -4.63744805     -11.91453163       0.00000000       0.00000000       0.00000000       0.01047026      -0.00112107       0.02111130
C        8.03839432       8.17948622     -15.35698732       0.00000000       0.00000000       0.00000000       0.00991223      -0.01849785      -0.01872520
O        9.07669944       7.76696047     -15.48881205       0.00000000       0.00000000       0.00000000      -0.02071709       0.01037181      -0.01045638
C       -7.52593051     -13.49688094      -8.09511702      -0.12451587       0.04703585      -0.00955800      -0.02695372       0.07511760      -0.03675748
O       -6.82689715     -14.36025487      -7.91676480      -0.09848122      -0.04170033      -0.10653289       0.04090964      -0.05314533       0.01842564
C        5.47126723     -20.75398132      -3.39087646       0.00000000       0.00000000       0.00000000      -0.00292036       0.00081083       0.00321568
O        4.77862769     -20.65943480      -2.50853689       0.00000000       0.00000000       0.00000000       0.00242197      -0.00115315      -0.00195138
C       -7.98602553      16.08170645      -8.23744705       0.00000000       0.00000000       0.00000000       0.00662463      -0.00888013       0.00198371
O       -8.90782179      16.09269924      -8.88213130       0.00000000       0.00000000       0.00000000      -0.00277503       0.00551192      -0.00337778
C      -16.66078303       3.56028747      -8.65286679      -0.05006046       0.01724443       0.21434973      -0.15482700      -0.14884539       0.43886283
O      -17.02659909       3.29601415      -7.61816948      -0.02296090      -0.11417429       0.23852468       0.15603893       0.12125845      -0.43263659
C      -10.04196747      -3.22732551     -17.37062866       0.00000000       0.00000000       0.00000000       0.01415777       0.01937332      -0.03738021
O       -9.58304359      -4.13110091     -16.88025384       0.00000000       0.00000000       0.00000000       0.01444992      -0.02725773       0.04966835
C       12.48733967      -9.70863533      -4.43028215      -0.02818950       0.01422687       0.06353173       0.40062931      -0.22750577       0.75371993
O       12.99190296     -10.02492486      -3.46705181      -0.00494514       0.00592202       0.14624675      -0.36802676       0.24736114      -0.73486507
C        5.81475338      -3.83371892     -18.29894151       0.00000000       0.00000000       0.00000000       0.00624070      -0.01103781      -0.00173088
O        6.24083693      -4.76695839     -18.76193139       0.00000000       0.00000000       0.00000000      -0.01091843      -0.02117813       0.01125314
C      -14.74446554       3.25735312      -5.15429816       0.07968444      -0.04298752       0.02452101       0.32909715      -0.00485192      -0.06432248
O      -13.64492950       3.33371103      -5.39411127      -0.02770003      -0.02944769       0.07597740      -0.33414397      -0.01938283       0.06911735
C      -14.43701620       6.62642719      -7.98817795       0.09864122       0.09570060       0.05157844       0.16402699       0.52556032      -0.20826544
O      -14.74971740       5.61092141      -7.63028829       0.00998011       0.05625200       0.05765506      -0.12916902      -0.51262927       0.17367074