10
Energy = 0.00 kcal/mol
C    1.356238 2.201530 0.166283
O    0.629329 1.416789 0.515356
C    1.859630 -3.523045 -1.148383
O    1.313053 -4.356527 -1.670367
C    0.643178 -2.520529 5.579864
O    -0.005358 -2.353045 4.675858
C    2.731087 -7.216723 3.727013
O    3.755701 -7.680235 3.692675
C    5.072522 -0.795204 3.185145
O    5.459831 -1.851491 3.168948
